begin
comment 4 atoms, species Al4
lattice      7.6374128584    -0.3818706429    -0.0000000000
lattice     -0.3818706429     7.6374128584    -0.0000000000
lattice     -0.0000000000    -0.0000000000     7.6565542440
atom      0.0000000000     0.0000000000     0.0000000000   Al  0.0 0.0    4.99495249e-14  5.39330512e-14 -1.09560527e-14
atom     -0.1909353215     3.8187064292     3.8282771220   Al  0.0 0.0    2.17078035e-15 -3.61417252e-14  1.11504952e-14
atom      3.8187064292    -0.1909353215     3.8282771220   Al  0.0 0.0   -2.05685788e-15  3.62962679e-14  1.08156553e-14
atom      3.6277711077     3.6277711077    -0.0000000000   Al  0.0 0.0   -5.00211965e-14 -5.41991444e-14 -1.08306774e-14
energy -7.900233925379338e+01
charge 0.0000
end
begin
comment 4 atoms, species Al4
lattice      7.6374128584    -0.2970105000    -0.0000000000
lattice     -0.2970105000     7.6374128584    -0.0000000000
lattice     -0.0000000000    -0.0000000000     7.6489807614
atom      0.0000000000     0.0000000000     0.0000000000   Al  0.0 0.0   -7.75820743e-14 -8.97340882e-14 -1.25898819e-14
atom     -0.1485052500     3.8187064292     3.8244903807   Al  0.0 0.0   -4.14691956e-14  5.77072483e-14  1.26118469e-14
atom      3.8187064292    -0.1485052500     3.8244903807   Al  0.0 0.0    4.13752931e-14 -5.76841842e-14  1.25707458e-14
atom      3.6702011792     3.6702011792    -0.0000000000   Al  0.0 0.0    7.76247627e-14  8.96303025e-14 -1.26552946e-14
energy -7.900362110503286e+01
charge 0.0000
end
begin
comment 4 atoms, species Al4
lattice      7.6374128584    -0.2121503572    -0.0000000000
lattice     -0.2121503572     7.6374128584    -0.0000000000
lattice     -0.0000000000    -0.0000000000     7.6433104745
atom      0.0000000000     0.0000000000     0.0000000000   Al  0.0 0.0   -8.03693869e-14 -1.55422576e-13 -1.52916958e-13
atom     -0.1060751786     3.8187064292     3.8216552372   Al  0.0 0.0   -3.06190454e-14  1.34093625e-13  1.53044624e-13
atom      3.8187064292    -0.1060751786     3.8216552372   Al  0.0 0.0    3.06617496e-14 -1.34023907e-13  1.52958854e-13
atom      3.7126312506     3.7126312506    -0.0000000000   Al  0.0 0.0    8.03426715e-14  1.55481365e-13 -1.52958530e-13
energy -7.900455418015773e+01
charge 0.0000
end
begin
comment 4 atoms, species Al4
lattice      7.6374128584    -0.1272902143    -0.0000000000
lattice     -0.1272902143     7.6374128584    -0.0000000000
lattice     -0.0000000000    -0.0000000000     7.6395349514
atom      0.0000000000     0.0000000000     0.0000000000   Al  0.0 0.0    1.00292189e-13  1.25690402e-14  1.37935564e-13
atom     -0.0636451072     3.8187064292     3.8197674757   Al  0.0 0.0    8.88845017e-14  9.30395460e-15 -1.37831497e-13
atom      3.8187064292    -0.0636451072     3.8197674757   Al  0.0 0.0   -8.89407602e-14 -9.47284567e-15 -1.38066207e-13
atom      3.7550613220     3.7550613220    -0.0000000000   Al  0.0 0.0   -1.00251321e-13 -1.24490682e-14  1.37972357e-13
energy -7.900516603799025e+01
charge 0.0000
end
begin
comment 4 atoms, species Al4
lattice      7.6374128584    -0.0424300714    -0.0000000000
lattice     -0.0424300714     7.6374128584    -0.0000000000
lattice     -0.0000000000    -0.0000000000     7.6376485883
atom      0.0000000000     0.0000000000     0.0000000000   Al  0.0 0.0    1.93159931e-13 -8.96678190e-14  2.13198041e-13
atom     -0.0212150357     3.8187064292     3.8188242941   Al  0.0 0.0    2.00997177e-13  1.04808783e-13 -2.13141250e-13
atom      3.8187064292    -0.0212150357     3.8188242941   Al  0.0 0.0   -2.01021570e-13 -1.04866795e-13 -2.12987290e-13
atom      3.7974913935     3.7974913935    -0.0000000000   Al  0.0 0.0   -1.93080150e-13  8.97401306e-14  2.13279009e-13
energy -7.900546969547642e+01
charge 0.0000
end
begin
comment 4 atoms, species Al4
lattice      7.6374128584     0.0424300714    -0.0000000000
lattice      0.0424300714     7.6374128584    -0.0000000000
lattice     -0.0000000000    -0.0000000000     7.6376485883
atom      0.0000000000     0.0000000000     0.0000000000   Al  0.0 0.0    2.01054728e-13 -1.04869209e-13  2.13133776e-13
atom      0.0212150357     3.8187064292     3.8188242941   Al  0.0 0.0    1.93036221e-13  8.97836879e-14 -2.13383035e-13
atom      3.8187064292     0.0212150357     3.8188242941   Al  0.0 0.0   -1.93078297e-13 -8.98854488e-14 -2.12954591e-13
atom      3.8399214649     3.8399214649    -0.0000000000   Al  0.0 0.0   -2.01002067e-13  1.04814504e-13  2.13396844e-13
energy -7.900546969547642e+01
charge 0.0000
end
begin
comment 4 atoms, species Al4
lattice      7.6374128584     0.1272902143    -0.0000000000
lattice      0.1272902143     7.6374128584    -0.0000000000
lattice     -0.0000000000    -0.0000000000     7.6395349514
atom      0.0000000000     0.0000000000     0.0000000000   Al  0.0 0.0    8.87456958e-14 -9.36463769e-15  1.37766959e-13
atom      0.0636451072     3.8187064292     3.8197674757   Al  0.0 0.0    1.00204461e-13 -1.24553699e-14 -1.38030935e-13
atom      3.8187064292     0.0636451072     3.8197674757   Al  0.0 0.0   -1.00222660e-13  1.24197201e-14 -1.38051812e-13
atom      3.8823515363     3.8823515363    -0.0000000000   Al  0.0 0.0   -8.87871638e-14  9.39891352e-15  1.37833717e-13
energy -7.900516603799025e+01
charge 0.0000
end
begin
comment 4 atoms, species Al4
lattice      7.6374128584     0.2121503572    -0.0000000000
lattice      0.2121503572     7.6374128584    -0.0000000000
lattice     -0.0000000000    -0.0000000000     7.6433104745
atom      0.0000000000     0.0000000000     0.0000000000   Al  0.0 0.0   -3.06015999e-14 -1.34167656e-13 -1.52791660e-13
atom      0.1060751786     3.8187064292     3.8216552372   Al  0.0 0.0   -8.02283526e-14  1.55360567e-13  1.52657826e-13
atom      3.8187064292     0.1060751786     3.8216552372   Al  0.0 0.0    8.03329109e-14 -1.55484741e-13  1.52933070e-13
atom      3.9247816078     3.9247816078    -0.0000000000   Al  0.0 0.0    3.05047184e-14  1.34196182e-13 -1.52908972e-13
energy -7.900455418015773e+01
charge 0.0000
end
begin
comment 4 atoms, species Al4
lattice      7.6374128584     0.2970105000    -0.0000000000
lattice      0.2970105000     7.6374128584    -0.0000000000
lattice     -0.0000000000    -0.0000000000     7.6489807614
atom      0.0000000000     0.0000000000     0.0000000000   Al  0.0 0.0   -4.14134775e-14 -5.76537655e-14 -1.26850669e-14
atom      0.1485052500     3.8187064292     3.8244903807   Al  0.0 0.0   -7.76696874e-14  8.96534707e-14  1.25213842e-14
atom      3.8187064292     0.1485052500     3.8244903807   Al  0.0 0.0    7.75313797e-14 -8.98073618e-14  1.26415227e-14
atom      3.9672116792     3.9672116792    -0.0000000000   Al  0.0 0.0    4.15642140e-14  5.76425869e-14 -1.26202795e-14
energy -7.900362110503286e+01
charge 0.0000
end
begin
comment 4 atoms, species Al4
lattice      7.6374128584     0.3818706429    -0.0000000000
lattice      0.3818706429     7.6374128584    -0.0000000000
lattice     -0.0000000000    -0.0000000000     7.6565542440
atom      0.0000000000     0.0000000000     0.0000000000   Al  0.0 0.0    2.09412223e-15  3.62643539e-14 -1.10033892e-14
atom      0.1909353215     3.8187064292     3.8282771220   Al  0.0 0.0    5.00199801e-14 -5.40018791e-14  1.11308254e-14
atom      3.8187064292     0.1909353215     3.8282771220   Al  0.0 0.0   -4.98943090e-14  5.39690487e-14  1.09872426e-14
atom      4.0096417506     4.0096417506    -0.0000000000   Al  0.0 0.0   -2.12979334e-15 -3.63176730e-14 -1.09205962e-14
energy -7.900233925379338e+01
charge 0.0000
end
begin
comment 4 atoms, species Al4
lattice      7.6374128584    -0.3818706429    -0.0000000000
lattice     -0.3818706429     7.6374128584    -0.0000000000
lattice     -0.0000000000    -0.0000000000     7.6565542440
atom      0.0000000000     0.0000000000     0.0000000000   Al  0.0 0.0    4.94836058e-14  5.36129012e-14 -1.14847638e-14
atom     -0.1909353215     3.8187064292     3.8282771220   Al  0.0 0.0    1.77569727e-15 -3.60990026e-14  1.15367014e-14
atom      3.8187064292    -0.1909353215     3.8282771220   Al  0.0 0.0   -1.85786754e-15  3.61255392e-14  1.14495302e-14
atom      3.6277711077     3.6277711077    -0.0000000000   Al  0.0 0.0   -4.93766578e-14 -5.37059341e-14 -1.13321770e-14
energy -7.900233925379338e+01
charge 0.0000
end
begin
comment 4 atoms, species Al4
lattice      7.6374128584    -0.2970105000    -0.0000000000
lattice     -0.2970105000     7.6374128584    -0.0000000000
lattice     -0.0000000000    -0.0000000000     7.6489807614
atom      0.0000000000     0.0000000000     0.0000000000   Al  0.0 0.0   -7.80872122e-14 -9.02570427e-14 -1.28524585e-14
atom     -0.1485052500     3.8187064292     3.8244903807   Al  0.0 0.0   -4.18166509e-14  5.80651175e-14  1.31837298e-14
atom      3.8187064292    -0.1485052500     3.8244903807   Al  0.0 0.0    4.17558303e-14 -5.79553264e-14  1.30522675e-14
atom      3.6702011792     3.6702011792    -0.0000000000   Al  0.0 0.0    7.81412238e-14  9.02152399e-14 -1.31589940e-14
energy -7.900362110503286e+01
charge 0.0000
end
begin
comment 4 atoms, species Al4
lattice      7.6374128584    -0.2121503572    -0.0000000000
lattice     -0.2121503572     7.6374128584    -0.0000000000
lattice     -0.0000000000    -0.0000000000     7.6433104745
atom      0.0000000000     0.0000000000     0.0000000000   Al  0.0 0.0   -8.08701285e-14 -1.56012621e-13 -1.53131413e-13
atom     -0.1060751786     3.8187064292     3.8216552372   Al  0.0 0.0   -3.08339556e-14  1.34375384e-13  1.53187856e-13
atom      3.8187064292    -0.1060751786     3.8216552372   Al  0.0 0.0    3.09483275e-14 -1.34301278e-13  1.53038997e-13
atom      3.7126312506     3.7126312506    -0.0000000000   Al  0.0 0.0    8.08414751e-14  1.56021078e-13 -1.53041097e-13
energy -7.900455418015775e+01
charge 0.0000
end
begin
comment 4 atoms, species Al4
lattice      7.6374128584    -0.1272902143    -0.0000000000
lattice     -0.1272902143     7.6374128584    -0.0000000000
lattice     -0.0000000000    -0.0000000000     7.6395349514
atom      0.0000000000     0.0000000000     0.0000000000   Al  0.0 0.0    1.00034020e-13  1.23346010e-14  1.37718980e-13
atom     -0.0636451072     3.8187064292     3.8197674757   Al  0.0 0.0    8.86307440e-14  9.62574182e-15 -1.37746680e-13
atom      3.8187064292    -0.0636451072     3.8197674757   Al  0.0 0.0   -8.86206449e-14 -9.66759552e-15 -1.37788773e-13
atom      3.7550613220     3.7550613220    -0.0000000000   Al  0.0 0.0   -1.00045918e-13 -1.22063606e-14  1.37767705e-13
energy -7.900516603799025e+01
charge 0.0000
end
begin
comment 4 atoms, species Al4
lattice      7.6374128584    -0.0424300714    -0.0000000000
lattice     -0.0424300714     7.6374128584    -0.0000000000
lattice     -0.0000000000    -0.0000000000     7.6376485883
atom      0.0000000000     0.0000000000     0.0000000000   Al  0.0 0.0    1.92638256e-13 -9.01030778e-14  2.13000886e-13
atom     -0.0212150357     3.8187064292     3.8188242941   Al  0.0 0.0    2.00587086e-13  1.05221357e-13 -2.12846206e-13
atom      3.8187064292    -0.0212150357     3.8188242941   Al  0.0 0.0   -2.00622790e-13 -1.05171753e-13 -2.12865568e-13
atom      3.7974913935     3.7974913935    -0.0000000000   Al  0.0 0.0   -1.92596669e-13  9.01091047e-14  2.12866452e-13
energy -7.900546969547642e+01
charge 0.0000
end
begin
comment 4 atoms, species Al4
lattice      7.6374128584     0.0424300714    -0.0000000000
lattice      0.0424300714     7.6374128584    -0.0000000000
lattice     -0.0000000000    -0.0000000000     7.6376485883
atom      0.0000000000     0.0000000000     0.0000000000   Al  0.0 0.0    2.00579337e-13 -1.05283794e-13  2.12798124e-13
atom      0.0212150357     3.8187064292     3.8188242941   Al  0.0 0.0    1.92571300e-13  9.01074962e-14 -2.12895721e-13
atom      3.8187064292     0.0212150357     3.8188242941   Al  0.0 0.0   -1.92654895e-13 -9.02171288e-14 -2.12588827e-13
atom      3.8399214649     3.8399214649    -0.0000000000   Al  0.0 0.0   -2.00526979e-13  1.05283781e-13  2.13005663e-13
energy -7.900546969547642e+01
charge 0.0000
end
begin
comment 4 atoms, species Al4
lattice      7.6374128584     0.1272902143    -0.0000000000
lattice      0.1272902143     7.6374128584    -0.0000000000
lattice     -0.0000000000    -0.0000000000     7.6395349514
atom      0.0000000000     0.0000000000     0.0000000000   Al  0.0 0.0    8.86038778e-14 -9.50371453e-15  1.37487033e-13
atom      0.0636451072     3.8187064292     3.8197674757   Al  0.0 0.0    9.99856210e-14 -1.23296045e-14 -1.37809803e-13
atom      3.8187064292     0.0636451072     3.8197674757   Al  0.0 0.0   -9.99114998e-14  1.21800909e-14 -1.37800296e-13
atom      3.8823515363     3.8823515363    -0.0000000000   Al  0.0 0.0   -8.86814422e-14  9.61334944e-15  1.37703846e-13
energy -7.900516603799025e+01
charge 0.0000
end
begin
comment 4 atoms, species Al4
lattice      7.6374128584     0.2121503572    -0.0000000000
lattice      0.2121503572     7.6374128584    -0.0000000000
lattice     -0.0000000000    -0.0000000000     7.6433104745
atom      0.0000000000     0.0000000000     0.0000000000   Al  0.0 0.0   -3.08945765e-14 -1.34467378e-13 -1.52945916e-13
atom      0.1060751786     3.8187064292     3.8216552372   Al  0.0 0.0   -8.07748264e-14  1.56041862e-13  1.53043482e-13
atom      3.8187064292     0.1060751786     3.8216552372   Al  0.0 0.0    8.08231013e-14 -1.55971945e-13  1.53232586e-13
atom      3.9247816078     3.9247816078    -0.0000000000   Al  0.0 0.0    3.08374854e-14  1.34432373e-13 -1.53445035e-13
energy -7.900455418015775e+01
charge 0.0000
end
begin
comment 4 atoms, species Al4
lattice      7.6374128584     0.2970105000    -0.0000000000
lattice      0.2970105000     7.6374128584    -0.0000000000
lattice     -0.0000000000    -0.0000000000     7.6489807614
atom      0.0000000000     0.0000000000     0.0000000000   Al  0.0 0.0   -4.17595979e-14 -5.80529057e-14 -1.31359220e-14
atom      0.1485052500     3.8187064292     3.8244903807   Al  0.0 0.0   -7.81846248e-14  9.02756207e-14  1.29761589e-14
atom      3.8187064292     0.1485052500     3.8244903807   Al  0.0 0.0    7.80822007e-14 -9.02896476e-14  1.32062812e-14
atom      3.9672116792     3.9672116792    -0.0000000000   Al  0.0 0.0    4.18441430e-14  5.79884363e-14 -1.31517866e-14
energy -7.900362110503286e+01
charge 0.0000
end
begin
comment 4 atoms, species Al4
lattice      7.6374128584     0.3818706429    -0.0000000000
lattice      0.3818706429     7.6374128584    -0.0000000000
lattice     -0.0000000000    -0.0000000000     7.6565542440
atom      0.0000000000     0.0000000000     0.0000000000   Al  0.0 0.0    1.89312381e-15  3.61500002e-14 -1.14594812e-14
atom      0.1909353215     3.8187064292     3.8282771220   Al  0.0 0.0    4.95885993e-14 -5.36699281e-14  1.15130429e-14
atom      3.8187064292     0.1909353215     3.8282771220   Al  0.0 0.0   -4.94179047e-14  5.34662157e-14  1.15949542e-14
atom      4.0096417506     4.0096417506    -0.0000000000   Al  0.0 0.0   -1.90370885e-15 -3.60517904e-14 -1.13175012e-14
energy -7.900233925379338e+01
charge 0.0000
end
begin
comment 4 atoms, species Al4
lattice      7.6374128584    -0.3818706429    -0.0000000000
lattice     -0.3818706429     7.6374128584    -0.0000000000
lattice     -0.0000000000    -0.0000000000     7.6565542440
atom      0.0000000000     0.0000000000     0.0000000000   Al  0.0 0.0    4.94836058e-14  5.36129012e-14 -1.14847638e-14
atom     -0.1909353215     3.8187064292     3.8282771220   Al  0.0 0.0    1.77569727e-15 -3.60990026e-14  1.15367014e-14
atom      3.8187064292    -0.1909353215     3.8282771220   Al  0.0 0.0   -1.85786754e-15  3.61255392e-14  1.14495302e-14
atom      3.6277711077     3.6277711077    -0.0000000000   Al  0.0 0.0   -4.93766578e-14 -5.37059341e-14 -1.13321770e-14
energy -7.900233925379338e+01
charge 0.0000
end
begin
comment 4 atoms, species Al4
lattice      7.6374128584    -0.2970105000    -0.0000000000
lattice     -0.2970105000     7.6374128584    -0.0000000000
lattice     -0.0000000000    -0.0000000000     7.6489807614
atom      0.0000000000     0.0000000000     0.0000000000   Al  0.0 0.0   -7.80872122e-14 -9.02570427e-14 -1.28524585e-14
atom     -0.1485052500     3.8187064292     3.8244903807   Al  0.0 0.0   -4.18166509e-14  5.80651175e-14  1.31837298e-14
atom      3.8187064292    -0.1485052500     3.8244903807   Al  0.0 0.0    4.17558303e-14 -5.79553264e-14  1.30522675e-14
atom      3.6702011792     3.6702011792    -0.0000000000   Al  0.0 0.0    7.81412238e-14  9.02152399e-14 -1.31589940e-14
energy -7.900362110503286e+01
charge 0.0000
end
begin
comment 4 atoms, species Al4
lattice      7.6374128584    -0.2121503572    -0.0000000000
lattice     -0.2121503572     7.6374128584    -0.0000000000
lattice     -0.0000000000    -0.0000000000     7.6433104745
atom      0.0000000000     0.0000000000     0.0000000000   Al  0.0 0.0   -8.08701285e-14 -1.56012621e-13 -1.53131413e-13
atom     -0.1060751786     3.8187064292     3.8216552372   Al  0.0 0.0   -3.08339556e-14  1.34375384e-13  1.53187856e-13
atom      3.8187064292    -0.1060751786     3.8216552372   Al  0.0 0.0    3.09483275e-14 -1.34301278e-13  1.53038997e-13
atom      3.7126312506     3.7126312506    -0.0000000000   Al  0.0 0.0    8.08414751e-14  1.56021078e-13 -1.53041097e-13
energy -7.900455418015775e+01
charge 0.0000
end
begin
comment 4 atoms, species Al4
lattice      7.6374128584    -0.1272902143    -0.0000000000
lattice     -0.1272902143     7.6374128584    -0.0000000000
lattice     -0.0000000000    -0.0000000000     7.6395349514
atom      0.0000000000     0.0000000000     0.0000000000   Al  0.0 0.0    1.00034020e-13  1.23346010e-14  1.37718980e-13
atom     -0.0636451072     3.8187064292     3.8197674757   Al  0.0 0.0    8.86307440e-14  9.62574182e-15 -1.37746680e-13
atom      3.8187064292    -0.0636451072     3.8197674757   Al  0.0 0.0   -8.86206449e-14 -9.66759552e-15 -1.37788773e-13
atom      3.7550613220     3.7550613220    -0.0000000000   Al  0.0 0.0   -1.00045918e-13 -1.22063606e-14  1.37767705e-13
energy -7.900516603799025e+01
charge 0.0000
end
begin
comment 4 atoms, species Al4
lattice      7.6374128584    -0.0424300714    -0.0000000000
lattice     -0.0424300714     7.6374128584    -0.0000000000
lattice     -0.0000000000    -0.0000000000     7.6376485883
atom      0.0000000000     0.0000000000     0.0000000000   Al  0.0 0.0    1.92638256e-13 -9.01030778e-14  2.13000886e-13
atom     -0.0212150357     3.8187064292     3.8188242941   Al  0.0 0.0    2.00587086e-13  1.05221357e-13 -2.12846206e-13
atom      3.8187064292    -0.0212150357     3.8188242941   Al  0.0 0.0   -2.00622790e-13 -1.05171753e-13 -2.12865568e-13
atom      3.7974913935     3.7974913935    -0.0000000000   Al  0.0 0.0   -1.92596669e-13  9.01091047e-14  2.12866452e-13
energy -7.900546969547642e+01
charge 0.0000
end
begin
comment 4 atoms, species Al4
lattice      7.6374128584     0.0424300714    -0.0000000000
lattice      0.0424300714     7.6374128584    -0.0000000000
lattice     -0.0000000000    -0.0000000000     7.6376485883
atom      0.0000000000     0.0000000000     0.0000000000   Al  0.0 0.0    2.00579337e-13 -1.05283794e-13  2.12798124e-13
atom      0.0212150357     3.8187064292     3.8188242941   Al  0.0 0.0    1.92571300e-13  9.01074962e-14 -2.12895721e-13
atom      3.8187064292     0.0212150357     3.8188242941   Al  0.0 0.0   -1.92654895e-13 -9.02171288e-14 -2.12588827e-13
atom      3.8399214649     3.8399214649    -0.0000000000   Al  0.0 0.0   -2.00526979e-13  1.05283781e-13  2.13005663e-13
energy -7.900546969547642e+01
charge 0.0000
end
begin
comment 4 atoms, species Al4
lattice      7.6374128584     0.1272902143    -0.0000000000
lattice      0.1272902143     7.6374128584    -0.0000000000
lattice     -0.0000000000    -0.0000000000     7.6395349514
atom      0.0000000000     0.0000000000     0.0000000000   Al  0.0 0.0    8.86038778e-14 -9.50371453e-15  1.37487033e-13
atom      0.0636451072     3.8187064292     3.8197674757   Al  0.0 0.0    9.99856210e-14 -1.23296045e-14 -1.37809803e-13
atom      3.8187064292     0.0636451072     3.8197674757   Al  0.0 0.0   -9.99114998e-14  1.21800909e-14 -1.37800296e-13
atom      3.8823515363     3.8823515363    -0.0000000000   Al  0.0 0.0   -8.86814422e-14  9.61334944e-15  1.37703846e-13
energy -7.900516603799025e+01
charge 0.0000
end
begin
comment 4 atoms, species Al4
lattice      7.6374128584     0.2121503572    -0.0000000000
lattice      0.2121503572     7.6374128584    -0.0000000000
lattice     -0.0000000000    -0.0000000000     7.6433104745
atom      0.0000000000     0.0000000000     0.0000000000   Al  0.0 0.0   -3.08945765e-14 -1.34467378e-13 -1.52945916e-13
atom      0.1060751786     3.8187064292     3.8216552372   Al  0.0 0.0   -8.07748264e-14  1.56041862e-13  1.53043482e-13
atom      3.8187064292     0.1060751786     3.8216552372   Al  0.0 0.0    8.08231013e-14 -1.55971945e-13  1.53232586e-13
atom      3.9247816078     3.9247816078    -0.0000000000   Al  0.0 0.0    3.08374854e-14  1.34432373e-13 -1.53445035e-13
energy -7.900455418015775e+01
charge 0.0000
end
begin
comment 4 atoms, species Al4
lattice      7.6374128584     0.2970105000    -0.0000000000
lattice      0.2970105000     7.6374128584    -0.0000000000
lattice     -0.0000000000    -0.0000000000     7.6489807614
atom      0.0000000000     0.0000000000     0.0000000000   Al  0.0 0.0   -4.17595979e-14 -5.80529057e-14 -1.31359220e-14
atom      0.1485052500     3.8187064292     3.8244903807   Al  0.0 0.0   -7.81846248e-14  9.02756207e-14  1.29761589e-14
atom      3.8187064292     0.1485052500     3.8244903807   Al  0.0 0.0    7.80822007e-14 -9.02896476e-14  1.32062812e-14
atom      3.9672116792     3.9672116792    -0.0000000000   Al  0.0 0.0    4.18441430e-14  5.79884363e-14 -1.31517866e-14
energy -7.900362110503286e+01
charge 0.0000
end
begin
comment 4 atoms, species Al4
lattice      7.6374128584     0.3818706429    -0.0000000000
lattice      0.3818706429     7.6374128584    -0.0000000000
lattice     -0.0000000000    -0.0000000000     7.6565542440
atom      0.0000000000     0.0000000000     0.0000000000   Al  0.0 0.0    1.89312381e-15  3.61500002e-14 -1.14594812e-14
atom      0.1909353215     3.8187064292     3.8282771220   Al  0.0 0.0    4.95885993e-14 -5.36699281e-14  1.15130429e-14
atom      3.8187064292     0.1909353215     3.8282771220   Al  0.0 0.0   -4.94179047e-14  5.34662157e-14  1.15949542e-14
atom      4.0096417506     4.0096417506    -0.0000000000   Al  0.0 0.0   -1.90370885e-15 -3.60517904e-14 -1.13175012e-14
energy -7.900233925379338e+01
charge 0.0000
end
begin
comment 4 atoms, species Al4
lattice      7.6374128584    -0.3818706429    -0.0000000000
lattice     -0.3818706429     7.6374128584    -0.0000000000
lattice     -0.0000000000    -0.0000000000     7.6565542440
atom      0.0000000000     0.0000000000     0.0000000000   Al  0.0 0.0    4.90441559e-14  5.31736130e-14 -1.17482109e-14
atom     -0.1909353215     3.8187064292     3.8282771220   Al  0.0 0.0    1.66217912e-15 -3.57266420e-14  1.18429798e-14
atom      3.8187064292    -0.1909353215     3.8282771220   Al  0.0 0.0   -1.60839512e-15  3.58511576e-14  1.17595801e-14
atom      3.6277711077     3.6277711077    -0.0000000000   Al  0.0 0.0   -4.91525561e-14 -5.32663494e-14 -1.18240303e-14
energy -7.900233925379338e+01
charge 0.0000
end
begin
comment 4 atoms, species Al4
lattice      7.6374128584    -0.2970105000    -0.0000000000
lattice     -0.2970105000     7.6374128584    -0.0000000000
lattice     -0.0000000000    -0.0000000000     7.6489807614
atom      0.0000000000     0.0000000000     0.0000000000   Al  0.0 0.0   -7.84181168e-14 -9.04181083e-14 -1.31041170e-14
atom     -0.1485052500     3.8187064292     3.8244903807   Al  0.0 0.0   -4.20190144e-14  5.81396980e-14  1.33781802e-14
atom      3.8187064292    -0.1485052500     3.8244903807   Al  0.0 0.0    4.20048123e-14 -5.81784767e-14  1.35205332e-14
atom      3.6702011792     3.6702011792    -0.0000000000   Al  0.0 0.0    7.84722186e-14  9.05175221e-14 -1.35893947e-14
energy -7.900362110503288e+01
charge 0.0000
end
begin
comment 4 atoms, species Al4
lattice      7.6374128584    -0.2121503572    -0.0000000000
lattice     -0.2121503572     7.6374128584    -0.0000000000
lattice     -0.0000000000    -0.0000000000     7.6433104745
atom      0.0000000000     0.0000000000     0.0000000000   Al  0.0 0.0   -8.11186895e-14 -1.56320248e-13 -1.53372668e-13
atom     -0.1060751786     3.8187064292     3.8216552372   Al  0.0 0.0   -3.10252755e-14  1.34796879e-13  1.53635598e-13
atom      3.8187064292    -0.1060751786     3.8216552372   Al  0.0 0.0    3.11029466e-14 -1.34547209e-13  1.53409086e-13
atom      3.7126312506     3.7126312506    -0.0000000000   Al  0.0 0.0    8.11321493e-14  1.56299389e-13 -1.53364605e-13
energy -7.900455418015775e+01
charge 0.0000
end
begin
comment 4 atoms, species Al4
lattice      7.6374128584    -0.1272902143    -0.0000000000
lattice     -0.1272902143     7.6374128584    -0.0000000000
lattice     -0.0000000000    -0.0000000000     7.6395349514
atom      0.0000000000     0.0000000000     0.0000000000   Al  0.0 0.0    9.97371399e-14  1.20772567e-14  1.37584268e-13
atom     -0.0636451072     3.8187064292     3.8197674757   Al  0.0 0.0    8.83161605e-14  9.76371680e-15 -1.37458205e-13
atom      3.8187064292    -0.0636451072     3.8197674757   Al  0.0 0.0   -8.84587180e-14 -9.73379239e-15 -1.37560479e-13
atom      3.7550613220     3.7550613220    -0.0000000000   Al  0.0 0.0   -9.96543983e-14 -1.20360563e-14  1.37606894e-13
energy -7.900516603799025e+01
charge 0.0000
end
begin
comment 4 atoms, species Al4
lattice      7.6374128584    -0.0424300714    -0.0000000000
lattice     -0.0424300714     7.6374128584    -0.0000000000
lattice     -0.0000000000    -0.0000000000     7.6376485883
atom      0.0000000000     0.0000000000     0.0000000000   Al  0.0 0.0    1.92498359e-13 -9.01205177e-14  2.12621362e-13
atom     -0.0212150357     3.8187064292     3.8188242941   Al  0.0 0.0    2.00308024e-13  1.05220980e-13 -2.12593411e-13
atom      3.8187064292    -0.0212150357     3.8188242941   Al  0.0 0.0   -2.00379940e-13 -1.05207445e-13 -2.12559142e-13
atom      3.7974913935     3.7974913935    -0.0000000000   Al  0.0 0.0   -1.92430682e-13  9.02061800e-14  2.12528021e-13
energy -7.900546969547642e+01
charge 0.0000
end
begin
comment 4 atoms, species Al4
lattice      7.6374128584     0.0424300714    -0.0000000000
lattice      0.0424300714     7.6374128584    -0.0000000000
lattice     -0.0000000000    -0.0000000000     7.6376485883
atom      0.0000000000     0.0000000000     0.0000000000   Al  0.0 0.0    2.00457427e-13 -1.05297831e-13  2.12513268e-13
atom      0.0212150357     3.8187064292     3.8188242941   Al  0.0 0.0    1.92472384e-13  9.01324507e-14 -2.12704801e-13
atom      3.8187064292     0.0212150357     3.8188242941   Al  0.0 0.0   -1.92500205e-13 -9.01769254e-14 -2.12341760e-13
atom      3.8399214649     3.8399214649    -0.0000000000   Al  0.0 0.0   -2.00416188e-13  1.05258884e-13  2.12739575e-13
energy -7.900546969547642e+01
charge 0.0000
end
begin
comment 4 atoms, species Al4
lattice      7.6374128584     0.1272902143    -0.0000000000
lattice      0.1272902143     7.6374128584    -0.0000000000
lattice     -0.0000000000    -0.0000000000     7.6395349514
atom      0.0000000000     0.0000000000     0.0000000000   Al  0.0 0.0    8.83880375e-14 -9.80084713e-15  1.37483010e-13
atom      0.0636451072     3.8187064292     3.8197674757   Al  0.0 0.0    9.97643465e-14 -1.19929770e-14 -1.37401104e-13
atom      3.8187064292     0.0636451072     3.8197674757   Al  0.0 0.0   -9.97140549e-14  1.19300641e-14 -1.37673628e-13
atom      3.8823515363     3.8823515363    -0.0000000000   Al  0.0 0.0   -8.84494871e-14  9.80446218e-15  1.37343317e-13
energy -7.900516603799025e+01
charge 0.0000
end
begin
comment 4 atoms, species Al4
lattice      7.6374128584     0.2121503572    -0.0000000000
lattice      0.2121503572     7.6374128584    -0.0000000000
lattice     -0.0000000000    -0.0000000000     7.6433104745
atom      0.0000000000     0.0000000000     0.0000000000   Al  0.0 0.0   -3.11049718e-14 -1.34707568e-13 -1.53468492e-13
atom      0.1060751786     3.8187064292     3.8216552372   Al  0.0 0.0   -8.10841030e-14  1.56319218e-13  1.53600662e-13
atom      3.8187064292     0.1060751786     3.8216552372   Al  0.0 0.0    8.11559299e-14 -1.56273452e-13  1.53336021e-13
atom      3.9247816078     3.9247816078    -0.0000000000   Al  0.0 0.0    3.10878939e-14  1.34590376e-13 -1.53464954e-13
energy -7.900455418015773e+01
charge 0.0000
end
begin
comment 4 atoms, species Al4
lattice      7.6374128584     0.2970105000    -0.0000000000
lattice      0.2970105000     7.6374128584    -0.0000000000
lattice     -0.0000000000    -0.0000000000     7.6489807614
atom      0.0000000000     0.0000000000     0.0000000000   Al  0.0 0.0   -4.20250311e-14 -5.81377713e-14 -1.35641101e-14
atom      0.1485052500     3.8187064292     3.8244903807   Al  0.0 0.0   -7.85367081e-14  9.03631763e-14  1.34964029e-14
atom      3.8187064292     0.1485052500     3.8244903807   Al  0.0 0.0    7.84927842e-14 -9.06539588e-14  1.35745773e-14
atom      3.9672116792     3.9672116792    -0.0000000000   Al  0.0 0.0    4.20923405e-14  5.82478232e-14 -1.37040392e-14
energy -7.900362110503286e+01
charge 0.0000
end
begin
comment 4 atoms, species Al4
lattice      7.6374128584     0.3818706429    -0.0000000000
lattice      0.3818706429     7.6374128584    -0.0000000000
lattice     -0.0000000000    -0.0000000000     7.6565542440
atom      0.0000000000     0.0000000000     0.0000000000   Al  0.0 0.0    1.59409248e-15  3.58183541e-14 -1.17254179e-14
atom      0.1909353215     3.8187064292     3.8282771220   Al  0.0 0.0    4.91034264e-14 -5.32403233e-14  1.18930095e-14
atom      3.8187064292     0.1909353215     3.8282771220   Al  0.0 0.0   -4.90697086e-14  5.30064221e-14  1.18584978e-14
atom      4.0096417506     4.0096417506    -0.0000000000   Al  0.0 0.0   -1.61000817e-15 -3.57486401e-14 -1.17991697e-14
energy -7.900233925379338e+01
charge 0.0000
end
begin
comment 4 atoms, species Al4
lattice      7.6374128584    -0.3818706429    -0.0000000000