begin
comment 4 atoms, species Al4
lattice      7.4082904726     0.0000000000    -0.0000000000
lattice      0.0000000000     7.4082904726    -0.0000000000
lattice     -0.0000000000    -0.0000000000     7.4082904726
atom      0.0000000000     0.0000000000     0.0000000000   Al  0.0 0.0   -2.08123770e-13 -2.08363101e-13 -2.08112323e-13
atom     -0.0000000000     3.7041452363     3.7041452363   Al  0.0 0.0   -2.08229023e-13  2.08336012e-13  2.08460765e-13
atom      3.7041452363    -0.0000000000     3.7041452363   Al  0.0 0.0    2.08187596e-13 -2.08284476e-13  2.08223982e-13
atom      3.7041452363     3.7041452363    -0.0000000000   Al  0.0 0.0    2.08246970e-13  2.08276871e-13 -2.08295070e-13
energy -7.900016203736877e+01
charge 0.0000
end
begin
comment 4 atoms, species Al4
lattice      7.4655710691     0.0000000000    -0.0000000000
lattice      0.0000000000     7.4655710691    -0.0000000000
lattice     -0.0000000000    -0.0000000000     7.4655710691
atom      0.0000000000     0.0000000000     0.0000000000   Al  0.0 0.0   -4.68688463e-14 -4.68370463e-14 -4.68159757e-14
atom     -0.0000000000     3.7327855345     3.7327855345   Al  0.0 0.0   -4.68754584e-14  4.66282583e-14  4.67457437e-14
atom      3.7327855345    -0.0000000000     3.7327855345   Al  0.0 0.0    4.69105428e-14 -4.68488172e-14  4.70345382e-14
atom      3.7327855345     3.7327855345    -0.0000000000   Al  0.0 0.0    4.67847787e-14  4.67812291e-14 -4.68461399e-14
energy -7.900255947098253e+01
charge 0.0000
end
begin
comment 4 atoms, species Al4
lattice      7.5228516655     0.0000000000    -0.0000000000
lattice      0.0000000000     7.5228516655    -0.0000000000
lattice     -0.0000000000    -0.0000000000     7.5228516655
atom      0.0000000000     0.0000000000     0.0000000000   Al  0.0 0.0    9.09476731e-14  9.09257748e-14  9.08104502e-14
atom     -0.0000000000     3.7614258327     3.7614258327   Al  0.0 0.0    9.09645406e-14 -9.10748825e-14 -9.09926461e-14
atom      3.7614258327    -0.0000000000     3.7614258327   Al  0.0 0.0   -9.09565791e-14  9.10857025e-14 -9.12543485e-14
atom      3.7614258327     3.7614258327    -0.0000000000   Al  0.0 0.0   -9.10235094e-14 -9.10908239e-14  9.09461208e-14
energy -7.900421759379496e+01
charge 0.0000
end
begin
comment 4 atoms, species Al4
lattice      7.5801322619     0.0000000000    -0.0000000000
lattice      0.0000000000     7.5801322619    -0.0000000000
lattice     -0.0000000000    -0.0000000000     7.5801322619
atom      0.0000000000     0.0000000000     0.0000000000   Al  0.0 0.0    2.06943989e-13  2.06977958e-13  2.06995497e-13
atom     -0.0000000000     3.7900661310     3.7900661310   Al  0.0 0.0    2.06957213e-13 -2.06837096e-13 -2.06964982e-13
atom      3.7900661310    -0.0000000000     3.7900661310   Al  0.0 0.0   -2.06955864e-13  2.06848247e-13 -2.06700223e-13
atom      3.7900661310     3.7900661310    -0.0000000000   Al  0.0 0.0   -2.06877059e-13 -2.06826044e-13  2.06765618e-13
energy -7.900518980887833e+01
charge 0.0000
end
begin
comment 4 atoms, species Al4
lattice      7.6374128584     0.0000000000    -0.0000000000
lattice      0.0000000000     7.6374128584    -0.0000000000
lattice     -0.0000000000    -0.0000000000     7.6374128584
atom      0.0000000000     0.0000000000     0.0000000000   Al  0.0 0.0   -1.73106974e-13 -1.73181974e-13 -1.73181596e-13
atom     -0.0000000000     3.8187064292     3.8187064292   Al  0.0 0.0   -1.73132882e-13  1.73303275e-13  1.73263642e-13
atom      3.8187064292    -0.0000000000     3.8187064292   Al  0.0 0.0    1.73055157e-13 -1.73153269e-13  1.73030540e-13
atom      3.8187064292     3.8187064292    -0.0000000000   Al  0.0 0.0    1.73147456e-13  1.73108929e-13 -1.73022647e-13
energy -7.900550761565145e+01
charge 0.0000
end
begin
comment 4 atoms, species Al4
lattice      7.6946934548     0.0000000000    -0.0000000000
lattice      0.0000000000     7.6946934548    -0.0000000000
lattice     -0.0000000000    -0.0000000000     7.6946934548
atom      0.0000000000     0.0000000000     0.0000000000   Al  0.0 0.0   -5.49956080e-14 -5.50494041e-14 -5.49165973e-14
atom     -0.0000000000     3.8473467274     3.8473467274   Al  0.0 0.0   -5.49902104e-14  5.50498248e-14  5.50432692e-14
atom      3.8473467274    -0.0000000000     3.8473467274   Al  0.0 0.0    5.50123406e-14 -5.50137454e-14  5.48745787e-14
atom      3.8473467274     3.8473467274    -0.0000000000   Al  0.0 0.0    5.49343452e-14  5.49200470e-14 -5.51554107e-14
energy -7.900520366458437e+01
charge 0.0000
end
begin
comment 4 atoms, species Al4
lattice      7.7519740512     0.0000000000    -0.0000000000
lattice      0.0000000000     7.7519740512    -0.0000000000
lattice     -0.0000000000    -0.0000000000     7.7519740512
atom      0.0000000000     0.0000000000     0.0000000000   Al  0.0 0.0    4.31133311e-14  4.30907669e-14  4.28102524e-14
atom     -0.0000000000     3.8759870256     3.8759870256   Al  0.0 0.0    4.30998371e-14 -4.30293609e-14 -4.30885931e-14
atom      3.8759870256    -0.0000000000     3.8759870256   Al  0.0 0.0   -4.30992973e-14  4.31127454e-14 -4.32123304e-14
atom      3.8759870256     3.8759870256    -0.0000000000   Al  0.0 0.0   -4.30531478e-14 -4.31324381e-14  4.35039374e-14
energy -7.900432678313264e+01
charge 0.0000
end
begin
comment 4 atoms, species Al4
lattice      7.8092546477     0.0000000000    -0.0000000000
lattice      0.0000000000     7.8092546477    -0.0000000000
lattice     -0.0000000000    -0.0000000000     7.8092546477
atom      0.0000000000     0.0000000000     0.0000000000   Al  0.0 0.0    1.22171980e-13  1.22060362e-13  1.22225585e-13
atom     -0.0000000000     3.9046273238     3.9046273238   Al  0.0 0.0    1.22176838e-13 -1.22086461e-13 -1.22223449e-13
atom      3.9046273238    -0.0000000000     3.9046273238   Al  0.0 0.0   -1.22206255e-13  1.22131288e-13 -1.22424178e-13
atom      3.9046273238     3.9046273238    -0.0000000000   Al  0.0 0.0   -1.22163884e-13 -1.22220542e-13  1.22523944e-13
energy -7.900293588170263e+01
charge 0.0000
end
begin
comment 4 atoms, species Al4
lattice      7.8665352441     0.0000000000    -0.0000000000
lattice      0.0000000000     7.8665352441    -0.0000000000
lattice     -0.0000000000    -0.0000000000     7.8665352441
atom      0.0000000000     0.0000000000     0.0000000000   Al  0.0 0.0   -1.30721239e-13 -1.30758073e-13 -1.30852748e-13
atom     -0.0000000000     3.9332676221     3.9332676221   Al  0.0 0.0   -1.30700188e-13  1.30717859e-13  1.30727360e-13
atom      3.9332676221    -0.0000000000     3.9332676221   Al  0.0 0.0    1.30751466e-13 -1.30765415e-13  1.30798241e-13
atom      3.9332676221     3.9332676221    -0.0000000000   Al  0.0 0.0    1.30727446e-13  1.30724925e-13 -1.30642115e-13
energy -7.900109436176554e+01
charge 0.0000
end
