
     Program PWSCF v.6.3 starts on 27Feb2020 at  1:25:59 

     This program is part of the open-source Quantum ESPRESSO suite
     for quantum simulation of materials; please cite
         "P. Giannozzi et al., J. Phys.:Condens. Matter 21 395502 (2009);
         "P. Giannozzi et al., J. Phys.:Condens. Matter 29 465901 (2017);
          URL http://www.quantum-espresso.org", 
     in publications or presentations arising from this work. More details at
     http://www.quantum-espresso.org/quote

 *** WARNING: using old-style file format, will disappear from next version ***

     Parallel version (MPI & OpenMP), running on     288 processor cores
     Number of MPI processes:               288
     Threads/MPI process:                     1

     MPI processes distributed on     8 nodes
     K-points division:     npool     =      36
     R & G space division:  proc/nbgrp/npool/nimage =       8
     Reading input from aiida.in
Warning: card &IONS ignored
Warning: card   !PRESS_CONV_THR = 0.05                 ! JUST FOR VOLUME RELAXATIONS ignored
Warning: card / ignored

     Current dimensions of program PWSCF are:
     Max number of different atomic species (ntypx) = 10
     Max number of k-points (npk) =  40000
     Max angular momentum in pseudopotentials (lmaxx) =  3
               file Mg.pbe-n-kjpaw_psl.0.3.0.UPF: wavefunction(s)  3S renormalized
               file Al.pbe-n-kjpaw_psl.1.0.0.UPF: wavefunction(s)  3S 3P renormalized

     Subspace diagonalization in iterative solution of the eigenvalue problem:
     one sub-group per band group will be used
     scalapack distributed-memory algorithm (size of sub-group:  2*  2 procs)

 
     Parallelization info
     --------------------
     sticks:   dense  smooth     PW     G-vecs:    dense   smooth      PW
     Min        3740    1497    390               486920   123201   16474
     Max        3741    1498    391               486925   123204   16481
     Sum       29921   11977   3125              3895379   985619  131827
 


     bravais-lattice index     =            0
     lattice parameter (alat)  =      30.6665  a.u.
     unit-cell volume          =   28839.7502 (a.u.)^3
     number of atoms/cell      =          256
     number of atomic types    =            2
     number of electrons       =       766.00
     number of Kohn-Sham states=          460
     kinetic-energy cutoff     =      40.0000  Ry
     charge density cutoff     =     400.0000  Ry
     convergence threshold     =      1.0E-12
     mixing beta               =       0.4000
     number of iterations used =            8  local-TF  mixing
     Exchange-correlation      = SLA PW PBX PBC ( 1  4  3  4 0 0)

     celldm(1)=  30.666473  celldm(2)=   0.000000  celldm(3)=   0.000000
     celldm(4)=   0.000000  celldm(5)=   0.000000  celldm(6)=   0.000000

     crystal axes: (cart. coord. in units of alat)
               a(1) = (   1.000000   0.000000   0.000000 )  
               a(2) = (   0.000000   1.000000   0.000000 )  
               a(3) = (   0.000000   0.000000   1.000000 )  

     reciprocal axes: (cart. coord. in units 2 pi/alat)
               b(1) = (  1.000000  0.000000  0.000000 )  
               b(2) = (  0.000000  1.000000  0.000000 )  
               b(3) = (  0.000000  0.000000  1.000000 )  


     PseudoPot. # 1 for Mg read from file:
     /users/aglensk/Dropbox/Albert/scripts/dotfiles/scripts/potentials/quantum_espresso/pseudo_SSSPefV1.1_alalloy/Mg.pbe-n-kjpaw_psl.0.3.0.UPF
     MD5 check sum: 24ecedc7f3e3cbe212e682f4413594e4
     Pseudo is Projector augmented-wave + core cor, Zval =  2.0
     Generated using "atomic" code by A. Dal Corso v.5.0.99 svn rev. 10869
     Shape of augmentation charge: PSQ
     Using radial grid of 1129 points,  4 beta functions with: 
                l(1) =   0
                l(2) =   0
                l(3) =   1
                l(4) =   1
     Q(r) pseudized with 0 coefficients 


     PseudoPot. # 2 for Al read from file:
     /users/aglensk/Dropbox/Albert/scripts/dotfiles/scripts/potentials/quantum_espresso/pseudo_SSSPefV1.1_alalloy/Al.pbe-n-kjpaw_psl.1.0.0.UPF
     MD5 check sum: cfc449ca30b5f3223ec38ddd88ac046d
     Pseudo is Projector augmented-wave + core cor, Zval =  3.0
     Generated using "atomic" code by A. Dal Corso v.5.1
     Shape of augmentation charge: PSQ
     Using radial grid of 1135 points,  6 beta functions with: 
                l(1) =   0
                l(2) =   0
                l(3) =   1
                l(4) =   1
                l(5) =   2
                l(6) =   2
     Q(r) pseudized with 0 coefficients 


     atomic species   valence    mass     pseudopotential
        Mg             2.00    24.30500     Mg( 1.00)
        Al             3.00    26.98154     Al( 1.00)

     No symmetry found


                                    s                        frac. trans.

      isym =  1     identity                                     

 cryst.   s( 1) = (     1          0          0      )
                  (     0          1          0      )
                  (     0          0          1      )

 cart.    s( 1) = (  1.0000000  0.0000000  0.0000000 )
                  (  0.0000000  1.0000000  0.0000000 )
                  (  0.0000000  0.0000000  1.0000000 )


   Cartesian axes

     site n.     atom                  positions (alat units)
         1           Mg  tau(   1) = (   0.9997093   0.9994509   0.9997093  )
         2           Al  tau(   2) = (   0.1264958   0.9998338   0.1264958  )
         3           Al  tau(   3) = (   0.1268225   0.1249996   0.9981774  )
         4           Al  tau(   4) = (   0.9981774   0.1249996   0.1268225  )
         5           Al  tau(   5) = (   0.9997581   0.9993755   0.2504660  )
         6           Al  tau(   6) = (   0.1252067   0.1237170   0.2520965  )
         7           Al  tau(   7) = (   0.1250051   0.9995433   0.3756386  )
         8           Al  tau(   8) = (   0.9997438   0.1247627   0.3757921  )
         9           Al  tau(   9) = (   0.9999925   0.9999294   0.5000824  )
        10           Al  tau(  10) = (   0.1250263   0.1250167   0.5001821  )
        11           Al  tau(  11) = (   0.1250099   0.9999447   0.6248165  )
        12           Al  tau(  12) = (   0.9999738   0.1249835   0.6248179  )
        13           Al  tau(  13) = (   0.0000030   0.9999367   0.7497673  )
        14           Al  tau(  14) = (   0.1252564   0.1252375   0.7492079  )
        15           Al  tau(  15) = (   0.1265089   0.9995935   0.8731037  )
        16           Al  tau(  16) = (   0.9997936   0.1262833   0.8729036  )
        17           Al  tau(  17) = (   0.9985039   0.2501663   0.9985039  )
        18           Al  tau(  18) = (   0.1250119   0.3767395   0.9984443  )
        19           Mg  tau(  19) = (   0.1252868   0.2505495   0.1252868  )
        20           Al  tau(  20) = (   0.9984443   0.3767395   0.1250119  )
        21           Al  tau(  21) = (   0.9984913   0.2504067   0.2518964  )
        22           Al  tau(  22) = (   0.1250060   0.3766673   0.2516454  )
        23           Al  tau(  23) = (   0.1249972   0.2500634   0.3752327  )
        24           Al  tau(  24) = (   0.9997361   0.3753320   0.3756857  )
        25           Al  tau(  25) = (   0.9999902   0.2500554   0.5001835  )
        26           Al  tau(  26) = (   0.1250155   0.3750282   0.5001860  )
        27           Al  tau(  27) = (   0.1250076   0.2500708   0.6249176  )
        28           Al  tau(  28) = (   0.9999721   0.3751045   0.6249237  )
        29           Al  tau(  29) = (   0.9999951   0.2504567   0.7493614  )
        30           Al  tau(  30) = (   0.1250094   0.3750970   0.7497387  )
        31           Al  tau(  31) = (   0.1252420   0.2506245   0.8745341  )
        32           Al  tau(  32) = (   0.9997456   0.3754391   0.8743924  )
        33           Al  tau(  33) = (   0.9997461   0.5006044   0.9997461  )
        34           Al  tau(  34) = (   0.1250080   0.6250000   0.9999921  )
        35           Al  tau(  35) = (   0.1250248   0.5001785   0.1250248  )
        36           Al  tau(  36) = (   0.9999921   0.6250000   0.1250080  )
        37           Al  tau(  37) = (   0.9997423   0.5006163   0.2503079  )
        38           Al  tau(  38) = (   0.1250048   0.6251138   0.2500764  )
        39           Al  tau(  39) = (   0.1250141   0.5004617   0.3754816  )
        40           Al  tau(  40) = (   0.9999929   0.6249994   0.3751494  )
        41           Al  tau(  41) = (   0.9999948   0.5000655   0.5000748  )
        42           Al  tau(  42) = (   0.1250142   0.6250598   0.5000762  )
        43           Al  tau(  43) = (   0.1250142   0.5000512   0.6249811  )
        44           Al  tau(  44) = (   0.9999858   0.6249401   0.6249237  )
        45           Al  tau(  45) = (   0.9999931   0.5000703   0.7498649  )
        46           Al  tau(  46) = (   0.1250072   0.6250004   0.7498506  )
        47           Al  tau(  47) = (   0.1250259   0.5004577   0.8745165  )
        48           Al  tau(  48) = (   0.9999953   0.6248861   0.8749236  )
        49           Al  tau(  49) = (   0.9999753   0.7498215   0.9999753  )
        50           Al  tau(  50) = (   0.1265558   0.8732605   0.9999883  )
        51           Al  tau(  51) = (   0.1252540   0.7493955   0.1252540  )
        52           Al  tau(  52) = (   0.9999883   0.8732605   0.1265558  )
        53           Al  tau(  53) = (   0.9999743   0.7495422   0.2504836  )
        54           Al  tau(  54) = (   0.1252546   0.8745609   0.2506077  )
        55           Al  tau(  55) = (   0.1250071   0.7499297   0.3751350  )
        56           Al  tau(  56) = (   0.9999907   0.8749030   0.3752613  )
        57           Al  tau(  57) = (   0.9999858   0.7499487   0.5000189  )
        58           Al  tau(  58) = (   0.1250280   0.8748955   0.5000763  )
        59           Al  tau(  59) = (   0.1250052   0.7499345   0.6249251  )
        60           Al  tau(  60) = (   0.9999846   0.8749718   0.6248140  )
        61           Al  tau(  61) = (   0.9999859   0.7495383   0.7495184  )
        62           Al  tau(  62) = (   0.1252640   0.8746681   0.7493144  )
        63           Al  tau(  63) = (   0.1252578   0.7493836   0.8746922  )
        64           Al  tau(  64) = (   0.9999943   0.8733323   0.8733544  )
        65           Al  tau(  65) = (   0.2504660   0.9993755   0.9997581  )
        66           Al  tau(  66) = (   0.3757921   0.1247627   0.9997438  )
        67           Al  tau(  67) = (   0.3756386   0.9995433   0.1250051  )
        68           Al  tau(  68) = (   0.2520965   0.1237170   0.1252067  )
        69           Al  tau(  69) = (   0.2506994   0.9994047   0.2506994  )
        70           Al  tau(  70) = (   0.3756739   0.1247466   0.2503209  )
        71           Al  tau(  71) = (   0.3751227   0.9999547   0.3751227  )
        72           Al  tau(  72) = (   0.2503209   0.1247466   0.3756739  )
        73           Al  tau(  73) = (   0.2500629   0.9999291   0.5000768  )
        74           Al  tau(  74) = (   0.3750868   0.1250086   0.5000783  )
        75           Al  tau(  75) = (   0.3750939   0.9999813   0.6249225  )
        76           Al  tau(  76) = (   0.2500970   0.1249808   0.6249213  )
        77           Al  tau(  77) = (   0.2504597   0.9999216   0.7494718  )
        78           Al  tau(  78) = (   0.3751574   0.1250001   0.7498426  )
        79           Al  tau(  79) = (   0.3752340   0.9999489   0.8749460  )
        80           Al  tau(  80) = (   0.2509279   0.1250001   0.8740722  )
        81           Al  tau(  81) = (   0.2518964   0.2504067   0.9984913  )
        82           Al  tau(  82) = (   0.3756857   0.3753320   0.9997361  )
        83           Al  tau(  83) = (   0.3752327   0.2500634   0.1249972  )
        84           Al  tau(  84) = (   0.2516454   0.3766673   0.1250060  )
        85           Al  tau(  85) = (   0.2516510   0.2500721   0.2516510  )
        86           Al  tau(  86) = (   0.3756157   0.3752570   0.2502482  )
        87           Al  tau(  87) = (   0.3754565   0.2499869   0.3754565  )
        88           Al  tau(  88) = (   0.2502482   0.3752570   0.3756157  )
        89           Al  tau(  89) = (   0.2500281   0.2500175   0.5001829  )
        90           Al  tau(  90) = (   0.3750802   0.3750144   0.5000750  )
        91           Al  tau(  91) = (   0.3750466   0.2499929   0.6250081  )
        92           Al  tau(  92) = (   0.2500205   0.3750189   0.6250079  )
        93           Al  tau(  93) = (   0.2500541   0.2500512   0.7497660  )
        94           Al  tau(  94) = (   0.3750615   0.3749997   0.7499281  )
        95           Al  tau(  95) = (   0.3755282   0.2500785   0.8745404  )
        96           Al  tau(  96) = (   0.2503231   0.3753193   0.8743996  )
        97           Al  tau(  97) = (   0.2503079   0.5006163   0.9997423  )
        98           Al  tau(  98) = (   0.3751494   0.6249994   0.9999929  )
        99           Al  tau(  99) = (   0.3754816   0.5004617   0.1250141  )
       100           Al  tau( 100) = (   0.2500764   0.6251138   0.1250048  )
       101           Al  tau( 101) = (   0.2502729   0.5006133   0.2502729  )
       102           Al  tau( 102) = (   0.3750619   0.6250867   0.2500000  )
       103           Al  tau( 103) = (   0.3750570   0.5000465   0.3750570  )
       104           Al  tau( 104) = (   0.2500000   0.6250867   0.3750619  )
       105           Al  tau( 105) = (   0.2500343   0.5000711   0.5000795  )
       106           Al  tau( 106) = (   0.3750040   0.6249818   0.4999940  )
       107           Al  tau( 107) = (   0.3750329   0.5000219   0.6249872  )
       108           Al  tau( 108) = (   0.2500041   0.6250269   0.6250090  )
       109           Al  tau( 109) = (   0.2500286   0.5000686   0.7499026  )
       110           Al  tau( 110) = (   0.3749824   0.6249999   0.7500176  )
       111           Al  tau( 111) = (   0.3750684   0.5000518   0.8749313  )
       112           Al  tau( 112) = (   0.2500741   0.6249999   0.8749260  )
       113           Al  tau( 113) = (   0.2504836   0.7495422   0.9999743  )
       114           Al  tau( 114) = (   0.3752613   0.8749030   0.9999907  )
       115           Al  tau( 115) = (   0.3751350   0.7499297   0.1250071  )
       116           Al  tau( 116) = (   0.2506077   0.8745609   0.1252546  )
       117           Al  tau( 117) = (   0.2500728   0.7499533   0.2500728  )
       118           Al  tau( 118) = (   0.3751459   0.8749151   0.2500723  )
       119           Al  tau( 119) = (   0.3750097   0.7500106   0.3750097  )
       120           Al  tau( 120) = (   0.2500723   0.8749151   0.3751459  )
       121           Al  tau( 121) = (   0.2500328   0.7499814   0.5000190  )
       122           Al  tau( 122) = (   0.3750095   0.8749946   0.4999900  )
       123           Al  tau( 123) = (   0.3750226   0.7500054   0.6250056  )
       124           Al  tau( 124) = (   0.2500899   0.8749722   0.6249162  )
       125           Al  tau( 125) = (   0.2500688   0.7499481   0.7499316  )
       126           Al  tau( 126) = (   0.3750720   0.8750004   0.7499386  )
       127           Al  tau( 127) = (   0.3750974   0.7499313   0.8749715  )
       128           Al  tau( 128) = (   0.2506005   0.8746807   0.8746769  )
       129           Al  tau( 129) = (   0.5000824   0.9999294   0.9999925  )
       130           Al  tau( 130) = (   0.6248179   0.1249835   0.9999738  )
       131           Al  tau( 131) = (   0.6248165   0.9999447   0.1250099  )
       132           Al  tau( 132) = (   0.5001821   0.1250167   0.1250263  )
       133           Al  tau( 133) = (   0.5000768   0.9999291   0.2500629  )
       134           Al  tau( 134) = (   0.6249213   0.1249808   0.2500970  )
       135           Al  tau( 135) = (   0.6249225   0.9999813   0.3750939  )
       136           Al  tau( 136) = (   0.5000783   0.1250086   0.3750868  )
       137           Al  tau( 137) = (   0.4999930   0.0000086   0.4999930  )
       138           Al  tau( 138) = (   0.6249809   0.1250001   0.5000190  )
       139           Al  tau( 139) = (   0.6249191   0.9999705   0.6249191  )
       140           Al  tau( 140) = (   0.5000190   0.1250001   0.6249809  )
       141           Al  tau( 141) = (   0.4999919   0.0000072   0.7499534  )
       142           Al  tau( 142) = (   0.6249216   0.1249915   0.7499133  )
       143           Al  tau( 143) = (   0.6248171   0.9999826   0.8749720  )
       144           Al  tau( 144) = (   0.5000787   0.1250194   0.8749031  )
       145           Al  tau( 145) = (   0.5001835   0.2500554   0.9999902  )
       146           Al  tau( 146) = (   0.6249237   0.3751045   0.9999721  )
       147           Al  tau( 147) = (   0.6249176   0.2500708   0.1250076  )
       148           Al  tau( 148) = (   0.5001860   0.3750282   0.1250155  )
       149           Al  tau( 149) = (   0.5001829   0.2500175   0.2500281  )
       150           Al  tau( 150) = (   0.6250079   0.3750189   0.2500205  )
       151           Al  tau( 151) = (   0.6250081   0.2499929   0.3750466  )
       152           Al  tau( 152) = (   0.5000750   0.3750144   0.3750802  )
       153           Al  tau( 153) = (   0.5000808   0.2500295   0.5000808  )
       154           Al  tau( 154) = (   0.6249897   0.3750286   0.5000195  )
       155           Al  tau( 155) = (   0.6250070   0.2499915   0.6250070  )
       156           Al  tau( 156) = (   0.5000195   0.3750286   0.6249897  )
       157           Al  tau( 157) = (   0.5000774   0.2500188   0.7499061  )
       158           Al  tau( 158) = (   0.6250099   0.3750055   0.7499905  )
       159           Al  tau( 159) = (   0.6249231   0.2500710   0.8749372  )
       160           Al  tau( 160) = (   0.5000838   0.3750278   0.8749102  )
       161           Al  tau( 161) = (   0.5000748   0.5000655   0.9999948  )
       162           Al  tau( 162) = (   0.6249237   0.6249401   0.9999858  )
       163           Al  tau( 163) = (   0.6249811   0.5000512   0.1250142  )
       164           Al  tau( 164) = (   0.5000762   0.6250598   0.1250142  )
       165           Al  tau( 165) = (   0.5000795   0.5000711   0.2500343  )
       166           Al  tau( 166) = (   0.6250090   0.6250269   0.2500041  )
       167           Al  tau( 167) = (   0.6249872   0.5000219   0.3750329  )
       168           Al  tau( 168) = (   0.4999940   0.6249818   0.3750040  )
       169           Al  tau( 169) = (   0.4999903   0.4999905   0.4999903  )
       170           Al  tau( 170) = (   0.6249878   0.6250000   0.5000122  )
       171           Al  tau( 171) = (   0.6249898   0.5000261   0.6249898  )
       172           Al  tau( 172) = (   0.5000122   0.6250000   0.6249878  )
       173           Al  tau( 173) = (   0.4999944   0.4999946   0.7499775  )
       174           Al  tau( 174) = (   0.6250059   0.6250182   0.7499961  )
       175           Al  tau( 175) = (   0.6249810   0.5000186   0.8749673  )
       176           Al  tau( 176) = (   0.4999910   0.6249730   0.8749960  )
       177           Al  tau( 177) = (   0.5000189   0.7499487   0.9999858  )
       178           Al  tau( 178) = (   0.6248140   0.8749718   0.9999846  )
       179           Al  tau( 179) = (   0.6249251   0.7499345   0.1250052  )
       180           Al  tau( 180) = (   0.5000763   0.8748955   0.1250280  )
       181           Al  tau( 181) = (   0.5000190   0.7499814   0.2500328  )
       182           Al  tau( 182) = (   0.6249162   0.8749722   0.2500899  )
       183           Al  tau( 183) = (   0.6250056   0.7500054   0.3750226  )
       184           Al  tau( 184) = (   0.4999900   0.8749946   0.3750095  )
       185           Al  tau( 185) = (   0.5000102   0.7499739   0.5000102  )
       186           Al  tau( 186) = (   0.6249805   0.8749715   0.5000102  )
       187           Al  tau( 187) = (   0.6250097   0.7500095   0.6250097  )
       188           Al  tau( 188) = (   0.5000102   0.8749715   0.6249805  )
       189           Al  tau( 189) = (   0.5000128   0.7499781   0.7499672  )
       190           Al  tau( 190) = (   0.6249249   0.8749856   0.7499198  )
       191           Al  tau( 191) = (   0.6249204   0.7499289   0.8749658  )
       192           Al  tau( 192) = (   0.4999921   0.8749811   0.8749796  )
       193           Al  tau( 193) = (   0.7497673   0.9999367   0.0000030  )
       194           Al  tau( 194) = (   0.8729036   0.1262833   0.9997936  )
       195           Al  tau( 195) = (   0.8731037   0.9995935   0.1265089  )
       196           Al  tau( 196) = (   0.7492079   0.1252375   0.1252564  )
       197           Al  tau( 197) = (   0.7494718   0.9999216   0.2504597  )
       198           Al  tau( 198) = (   0.8740722   0.1250001   0.2509279  )
       199           Al  tau( 199) = (   0.8749460   0.9999489   0.3752340  )
       200           Al  tau( 200) = (   0.7498426   0.1250001   0.3751574  )
       201           Al  tau( 201) = (   0.7499534   0.0000072   0.4999919  )
       202           Al  tau( 202) = (   0.8749031   0.1250194   0.5000787  )
       203           Al  tau( 203) = (   0.8749720   0.9999826   0.6248171  )
       204           Al  tau( 204) = (   0.7499133   0.1249915   0.6249216  )
       205           Al  tau( 205) = (   0.7495436   0.0000131   0.7495436  )
       206           Al  tau( 206) = (   0.8746793   0.1252536   0.7493262  )
       207           Al  tau( 207) = (   0.8733486   0.9999279   0.8733486  )
       208           Al  tau( 208) = (   0.7493262   0.1252536   0.8746793  )
       209           Al  tau( 209) = (   0.7493614   0.2504567   0.9999951  )
       210           Al  tau( 210) = (   0.8743924   0.3754391   0.9997456  )
       211           Al  tau( 211) = (   0.8745341   0.2506245   0.1252420  )
       212           Al  tau( 212) = (   0.7497387   0.3750970   0.1250094  )
       213           Al  tau( 213) = (   0.7497660   0.2500512   0.2500541  )
       214           Al  tau( 214) = (   0.8743996   0.3753193   0.2503231  )
       215           Al  tau( 215) = (   0.8745404   0.2500785   0.3755282  )
       216           Al  tau( 216) = (   0.7499281   0.3749997   0.3750615  )
       217           Al  tau( 217) = (   0.7499061   0.2500188   0.5000774  )
       218           Al  tau( 218) = (   0.8749102   0.3750278   0.5000838  )
       219           Al  tau( 219) = (   0.8749372   0.2500710   0.6249231  )
       220           Al  tau( 220) = (   0.7499905   0.3750055   0.6250099  )
       221           Al  tau( 221) = (   0.7498773   0.2500454   0.7498773  )
       222           Al  tau( 222) = (   0.8749278   0.3750849   0.7498540  )
       223           Al  tau( 223) = (   0.8743008   0.2505954   0.8743008  )
       224           Al  tau( 224) = (   0.7498540   0.3750849   0.8749278  )
       225           Al  tau( 225) = (   0.7498649   0.5000703   0.9999931  )
       226           Al  tau( 226) = (   0.8749236   0.6248861   0.9999953  )
       227           Al  tau( 227) = (   0.8745165   0.5004577   0.1250259  )
       228           Al  tau( 228) = (   0.7498506   0.6250004   0.1250072  )
       229           Al  tau( 229) = (   0.7499026   0.5000686   0.2500286  )
       230           Al  tau( 230) = (   0.8749260   0.6249999   0.2500741  )
       231           Al  tau( 231) = (   0.8749313   0.5000518   0.3750684  )
       232           Al  tau( 232) = (   0.7500176   0.6249999   0.3749824  )
       233           Al  tau( 233) = (   0.7499775   0.4999946   0.4999944  )
       234           Al  tau( 234) = (   0.8749960   0.6249730   0.4999910  )
       235           Al  tau( 235) = (   0.8749673   0.5000186   0.6249810  )
       236           Al  tau( 236) = (   0.7499961   0.6250182   0.6250059  )
       237           Al  tau( 237) = (   0.7499903   0.4999894   0.7499903  )
       238           Al  tau( 238) = (   0.8750000   0.6249132   0.7499381  )
       239           Al  tau( 239) = (   0.8749273   0.5000467   0.8749273  )
       240           Al  tau( 240) = (   0.7499381   0.6249132   0.8750000  )
       241           Al  tau( 241) = (   0.7495184   0.7495383   0.9999859  )
       242           Al  tau( 242) = (   0.8733544   0.8733323   0.9999943  )
       243           Al  tau( 243) = (   0.8746922   0.7493836   0.1252578  )
       244           Al  tau( 244) = (   0.7493144   0.8746681   0.1252640  )
       245           Al  tau( 245) = (   0.7499316   0.7499481   0.2500688  )
       246           Al  tau( 246) = (   0.8746769   0.8746807   0.2506005  )
       247           Al  tau( 247) = (   0.8749715   0.7499313   0.3750974  )
       248           Al  tau( 248) = (   0.7499386   0.8750004   0.3750720  )
       249           Al  tau( 249) = (   0.7499672   0.7499781   0.5000128  )
       250           Al  tau( 250) = (   0.8749796   0.8749811   0.4999921  )
       251           Al  tau( 251) = (   0.8749658   0.7499289   0.6249204  )
       252           Al  tau( 252) = (   0.7499198   0.8749856   0.6249249  )
       253           Al  tau( 253) = (   0.7499430   0.7499535   0.7499430  )
       254           Al  tau( 254) = (   0.8747519   0.8747430   0.7493843  )
       255           Al  tau( 255) = (   0.8747272   0.7493866   0.8747272  )
       256           Al  tau( 256) = (   0.7493843   0.8747430   0.8747519  )

   Crystallographic axes

     site n.     atom                  positions (cryst. coord.)
         1           Mg  tau(   1) = (  0.9997093  0.9994509  0.9997093  )
         2           Al  tau(   2) = (  0.1264958  0.9998338  0.1264958  )
         3           Al  tau(   3) = (  0.1268225  0.1249996  0.9981774  )
         4           Al  tau(   4) = (  0.9981774  0.1249996  0.1268225  )
         5           Al  tau(   5) = (  0.9997581  0.9993755  0.2504660  )
         6           Al  tau(   6) = (  0.1252067  0.1237170  0.2520965  )
         7           Al  tau(   7) = (  0.1250051  0.9995433  0.3756386  )
         8           Al  tau(   8) = (  0.9997438  0.1247627  0.3757921  )
         9           Al  tau(   9) = (  0.9999925  0.9999294  0.5000824  )
        10           Al  tau(  10) = (  0.1250263  0.1250167  0.5001821  )
        11           Al  tau(  11) = (  0.1250099  0.9999447  0.6248165  )
        12           Al  tau(  12) = (  0.9999738  0.1249835  0.6248179  )
        13           Al  tau(  13) = (  0.0000030  0.9999367  0.7497673  )
        14           Al  tau(  14) = (  0.1252564  0.1252375  0.7492079  )
        15           Al  tau(  15) = (  0.1265089  0.9995935  0.8731037  )
        16           Al  tau(  16) = (  0.9997936  0.1262833  0.8729036  )
        17           Al  tau(  17) = (  0.9985039  0.2501663  0.9985039  )
        18           Al  tau(  18) = (  0.1250119  0.3767395  0.9984443  )
        19           Mg  tau(  19) = (  0.1252868  0.2505495  0.1252868  )
        20           Al  tau(  20) = (  0.9984443  0.3767395  0.1250119  )
        21           Al  tau(  21) = (  0.9984913  0.2504067  0.2518964  )
        22           Al  tau(  22) = (  0.1250060  0.3766673  0.2516454  )
        23           Al  tau(  23) = (  0.1249972  0.2500634  0.3752327  )
        24           Al  tau(  24) = (  0.9997361  0.3753320  0.3756857  )
        25           Al  tau(  25) = (  0.9999902  0.2500554  0.5001835  )
        26           Al  tau(  26) = (  0.1250155  0.3750282  0.5001860  )
        27           Al  tau(  27) = (  0.1250076  0.2500708  0.6249176  )
        28           Al  tau(  28) = (  0.9999721  0.3751045  0.6249237  )
        29           Al  tau(  29) = (  0.9999951  0.2504567  0.7493614  )
        30           Al  tau(  30) = (  0.1250094  0.3750970  0.7497387  )
        31           Al  tau(  31) = (  0.1252420  0.2506245  0.8745341  )
        32           Al  tau(  32) = (  0.9997456  0.3754391  0.8743924  )
        33           Al  tau(  33) = (  0.9997461  0.5006044  0.9997461  )
        34           Al  tau(  34) = (  0.1250080  0.6250000  0.9999921  )
        35           Al  tau(  35) = (  0.1250248  0.5001785  0.1250248  )
        36           Al  tau(  36) = (  0.9999921  0.6250000  0.1250080  )
        37           Al  tau(  37) = (  0.9997423  0.5006163  0.2503079  )
        38           Al  tau(  38) = (  0.1250048  0.6251138  0.2500764  )
        39           Al  tau(  39) = (  0.1250141  0.5004617  0.3754816  )
        40           Al  tau(  40) = (  0.9999929  0.6249994  0.3751494  )
        41           Al  tau(  41) = (  0.9999948  0.5000655  0.5000748  )
        42           Al  tau(  42) = (  0.1250142  0.6250598  0.5000762  )
        43           Al  tau(  43) = (  0.1250142  0.5000512  0.6249811  )
        44           Al  tau(  44) = (  0.9999858  0.6249401  0.6249237  )
        45           Al  tau(  45) = (  0.9999931  0.5000703  0.7498649  )
        46           Al  tau(  46) = (  0.1250072  0.6250004  0.7498506  )
        47           Al  tau(  47) = (  0.1250259  0.5004577  0.8745165  )
        48           Al  tau(  48) = (  0.9999953  0.6248861  0.8749236  )
        49           Al  tau(  49) = (  0.9999753  0.7498215  0.9999753  )
        50           Al  tau(  50) = (  0.1265558  0.8732605  0.9999883  )
        51           Al  tau(  51) = (  0.1252540  0.7493955  0.1252540  )
        52           Al  tau(  52) = (  0.9999883  0.8732605  0.1265558  )
        53           Al  tau(  53) = (  0.9999743  0.7495422  0.2504836  )
        54           Al  tau(  54) = (  0.1252546  0.8745609  0.2506077  )
        55           Al  tau(  55) = (  0.1250071  0.7499297  0.3751350  )
        56           Al  tau(  56) = (  0.9999907  0.8749030  0.3752613  )
        57           Al  tau(  57) = (  0.9999858  0.7499487  0.5000189  )
        58           Al  tau(  58) = (  0.1250280  0.8748955  0.5000763  )
        59           Al  tau(  59) = (  0.1250052  0.7499345  0.6249251  )
        60           Al  tau(  60) = (  0.9999846  0.8749718  0.6248140  )
        61           Al  tau(  61) = (  0.9999859  0.7495383  0.7495184  )
        62           Al  tau(  62) = (  0.1252640  0.8746681  0.7493144  )
        63           Al  tau(  63) = (  0.1252578  0.7493836  0.8746922  )
        64           Al  tau(  64) = (  0.9999943  0.8733323  0.8733544  )
        65           Al  tau(  65) = (  0.2504660  0.9993755  0.9997581  )
        66           Al  tau(  66) = (  0.3757921  0.1247627  0.9997438  )
        67           Al  tau(  67) = (  0.3756386  0.9995433  0.1250051  )
        68           Al  tau(  68) = (  0.2520965  0.1237170  0.1252067  )
        69           Al  tau(  69) = (  0.2506994  0.9994047  0.2506994  )
        70           Al  tau(  70) = (  0.3756739  0.1247466  0.2503209  )
        71           Al  tau(  71) = (  0.3751227  0.9999547  0.3751227  )
        72           Al  tau(  72) = (  0.2503209  0.1247466  0.3756739  )
        73           Al  tau(  73) = (  0.2500629  0.9999291  0.5000768  )
        74           Al  tau(  74) = (  0.3750868  0.1250086  0.5000783  )
        75           Al  tau(  75) = (  0.3750939  0.9999813  0.6249225  )
        76           Al  tau(  76) = (  0.2500970  0.1249808  0.6249213  )
        77           Al  tau(  77) = (  0.2504597  0.9999216  0.7494718  )
        78           Al  tau(  78) = (  0.3751574  0.1250001  0.7498426  )
        79           Al  tau(  79) = (  0.3752340  0.9999489  0.8749460  )
        80           Al  tau(  80) = (  0.2509279  0.1250001  0.8740722  )
        81           Al  tau(  81) = (  0.2518964  0.2504067  0.9984913  )
        82           Al  tau(  82) = (  0.3756857  0.3753320  0.9997361  )
        83           Al  tau(  83) = (  0.3752327  0.2500634  0.1249972  )
        84           Al  tau(  84) = (  0.2516454  0.3766673  0.1250060  )
        85           Al  tau(  85) = (  0.2516510  0.2500721  0.2516510  )
        86           Al  tau(  86) = (  0.3756157  0.3752570  0.2502482  )
        87           Al  tau(  87) = (  0.3754565  0.2499869  0.3754565  )
        88           Al  tau(  88) = (  0.2502482  0.3752570  0.3756157  )
        89           Al  tau(  89) = (  0.2500281  0.2500175  0.5001829  )
        90           Al  tau(  90) = (  0.3750802  0.3750144  0.5000750  )
        91           Al  tau(  91) = (  0.3750466  0.2499929  0.6250081  )
        92           Al  tau(  92) = (  0.2500205  0.3750189  0.6250079  )
        93           Al  tau(  93) = (  0.2500541  0.2500512  0.7497660  )
        94           Al  tau(  94) = (  0.3750615  0.3749997  0.7499281  )
        95           Al  tau(  95) = (  0.3755282  0.2500785  0.8745404  )
        96           Al  tau(  96) = (  0.2503231  0.3753193  0.8743996  )
        97           Al  tau(  97) = (  0.2503079  0.5006163  0.9997423  )
        98           Al  tau(  98) = (  0.3751494  0.6249994  0.9999929  )
        99           Al  tau(  99) = (  0.3754816  0.5004617  0.1250141  )
       100           Al  tau( 100) = (  0.2500764  0.6251138  0.1250048  )
       101           Al  tau( 101) = (  0.2502729  0.5006133  0.2502729  )
       102           Al  tau( 102) = (  0.3750619  0.6250867  0.2500000  )
       103           Al  tau( 103) = (  0.3750570  0.5000465  0.3750570  )
       104           Al  tau( 104) = (  0.2500000  0.6250867  0.3750619  )
       105           Al  tau( 105) = (  0.2500343  0.5000711  0.5000795  )
       106           Al  tau( 106) = (  0.3750040  0.6249818  0.4999940  )
       107           Al  tau( 107) = (  0.3750329  0.5000219  0.6249872  )
       108           Al  tau( 108) = (  0.2500041  0.6250269  0.6250090  )
       109           Al  tau( 109) = (  0.2500286  0.5000686  0.7499026  )
       110           Al  tau( 110) = (  0.3749824  0.6249999  0.7500176  )
       111           Al  tau( 111) = (  0.3750684  0.5000518  0.8749313  )
       112           Al  tau( 112) = (  0.2500741  0.6249999  0.8749260  )
       113           Al  tau( 113) = (  0.2504836  0.7495422  0.9999743  )
       114           Al  tau( 114) = (  0.3752613  0.8749030  0.9999907  )
       115           Al  tau( 115) = (  0.3751350  0.7499297  0.1250071  )
       116           Al  tau( 116) = (  0.2506077  0.8745609  0.1252546  )
       117           Al  tau( 117) = (  0.2500728  0.7499533  0.2500728  )
       118           Al  tau( 118) = (  0.3751459  0.8749151  0.2500723  )
       119           Al  tau( 119) = (  0.3750097  0.7500106  0.3750097  )
       120           Al  tau( 120) = (  0.2500723  0.8749151  0.3751459  )
       121           Al  tau( 121) = (  0.2500328  0.7499814  0.5000190  )
       122           Al  tau( 122) = (  0.3750095  0.8749946  0.4999900  )
       123           Al  tau( 123) = (  0.3750226  0.7500054  0.6250056  )
       124           Al  tau( 124) = (  0.2500899  0.8749722  0.6249162  )
       125           Al  tau( 125) = (  0.2500688  0.7499481  0.7499316  )
       126           Al  tau( 126) = (  0.3750720  0.8750004  0.7499386  )
       127           Al  tau( 127) = (  0.3750974  0.7499313  0.8749715  )
       128           Al  tau( 128) = (  0.2506005  0.8746807  0.8746769  )
       129           Al  tau( 129) = (  0.5000824  0.9999294  0.9999925  )
       130           Al  tau( 130) = (  0.6248179  0.1249835  0.9999738  )
       131           Al  tau( 131) = (  0.6248165  0.9999447  0.1250099  )
       132           Al  tau( 132) = (  0.5001821  0.1250167  0.1250263  )
       133           Al  tau( 133) = (  0.5000768  0.9999291  0.2500629  )
       134           Al  tau( 134) = (  0.6249213  0.1249808  0.2500970  )
       135           Al  tau( 135) = (  0.6249225  0.9999813  0.3750939  )
       136           Al  tau( 136) = (  0.5000783  0.1250086  0.3750868  )
       137           Al  tau( 137) = (  0.4999930  0.0000086  0.4999930  )
       138           Al  tau( 138) = (  0.6249809  0.1250001  0.5000190  )
       139           Al  tau( 139) = (  0.6249191  0.9999705  0.6249191  )
       140           Al  tau( 140) = (  0.5000190  0.1250001  0.6249809  )
       141           Al  tau( 141) = (  0.4999919  0.0000072  0.7499534  )
       142           Al  tau( 142) = (  0.6249216  0.1249915  0.7499133  )
       143           Al  tau( 143) = (  0.6248171  0.9999826  0.8749720  )
       144           Al  tau( 144) = (  0.5000787  0.1250194  0.8749031  )
       145           Al  tau( 145) = (  0.5001835  0.2500554  0.9999902  )
       146           Al  tau( 146) = (  0.6249237  0.3751045  0.9999721  )
       147           Al  tau( 147) = (  0.6249176  0.2500708  0.1250076  )
       148           Al  tau( 148) = (  0.5001860  0.3750282  0.1250155  )
       149           Al  tau( 149) = (  0.5001829  0.2500175  0.2500281  )
       150           Al  tau( 150) = (  0.6250079  0.3750189  0.2500205  )
       151           Al  tau( 151) = (  0.6250081  0.2499929  0.3750466  )
       152           Al  tau( 152) = (  0.5000750  0.3750144  0.3750802  )
       153           Al  tau( 153) = (  0.5000808  0.2500295  0.5000808  )
       154           Al  tau( 154) = (  0.6249897  0.3750286  0.5000195  )
       155           Al  tau( 155) = (  0.6250070  0.2499915  0.6250070  )
       156           Al  tau( 156) = (  0.5000195  0.3750286  0.6249897  )
       157           Al  tau( 157) = (  0.5000774  0.2500188  0.7499061  )
       158           Al  tau( 158) = (  0.6250099  0.3750055  0.7499905  )
       159           Al  tau( 159) = (  0.6249231  0.2500710  0.8749372  )
       160           Al  tau( 160) = (  0.5000838  0.3750278  0.8749102  )
       161           Al  tau( 161) = (  0.5000748  0.5000655  0.9999948  )
       162           Al  tau( 162) = (  0.6249237  0.6249401  0.9999858  )
       163           Al  tau( 163) = (  0.6249811  0.5000512  0.1250142  )
       164           Al  tau( 164) = (  0.5000762  0.6250598  0.1250142  )
       165           Al  tau( 165) = (  0.5000795  0.5000711  0.2500343  )
       166           Al  tau( 166) = (  0.6250090  0.6250269  0.2500041  )
       167           Al  tau( 167) = (  0.6249872  0.5000219  0.3750329  )
       168           Al  tau( 168) = (  0.4999940  0.6249818  0.3750040  )
       169           Al  tau( 169) = (  0.4999903  0.4999905  0.4999903  )
       170           Al  tau( 170) = (  0.6249878  0.6250000  0.5000122  )
       171           Al  tau( 171) = (  0.6249898  0.5000261  0.6249898  )
       172           Al  tau( 172) = (  0.5000122  0.6250000  0.6249878  )
       173           Al  tau( 173) = (  0.4999944  0.4999946  0.7499775  )
       174           Al  tau( 174) = (  0.6250059  0.6250182  0.7499961  )
       175           Al  tau( 175) = (  0.6249810  0.5000186  0.8749673  )
       176           Al  tau( 176) = (  0.4999910  0.6249730  0.8749960  )
       177           Al  tau( 177) = (  0.5000189  0.7499487  0.9999858  )
       178           Al  tau( 178) = (  0.6248140  0.8749718  0.9999846  )
       179           Al  tau( 179) = (  0.6249251  0.7499345  0.1250052  )
       180           Al  tau( 180) = (  0.5000763  0.8748955  0.1250280  )
       181           Al  tau( 181) = (  0.5000190  0.7499814  0.2500328  )
       182           Al  tau( 182) = (  0.6249162  0.8749722  0.2500899  )
       183           Al  tau( 183) = (  0.6250056  0.7500054  0.3750226  )
       184           Al  tau( 184) = (  0.4999900  0.8749946  0.3750095  )
       185           Al  tau( 185) = (  0.5000102  0.7499739  0.5000102  )
       186           Al  tau( 186) = (  0.6249805  0.8749715  0.5000102  )
       187           Al  tau( 187) = (  0.6250097  0.7500095  0.6250097  )
       188           Al  tau( 188) = (  0.5000102  0.8749715  0.6249805  )
       189           Al  tau( 189) = (  0.5000128  0.7499781  0.7499672  )
       190           Al  tau( 190) = (  0.6249249  0.8749856  0.7499198  )
       191           Al  tau( 191) = (  0.6249204  0.7499289  0.8749658  )
       192           Al  tau( 192) = (  0.4999921  0.8749811  0.8749796  )
       193           Al  tau( 193) = (  0.7497673  0.9999367  0.0000030  )
       194           Al  tau( 194) = (  0.8729036  0.1262833  0.9997936  )
       195           Al  tau( 195) = (  0.8731037  0.9995935  0.1265089  )
       196           Al  tau( 196) = (  0.7492079  0.1252375  0.1252564  )
       197           Al  tau( 197) = (  0.7494718  0.9999216  0.2504597  )
       198           Al  tau( 198) = (  0.8740722  0.1250001  0.2509279  )
       199           Al  tau( 199) = (  0.8749460  0.9999489  0.3752340  )
       200           Al  tau( 200) = (  0.7498426  0.1250001  0.3751574  )
       201           Al  tau( 201) = (  0.7499534  0.0000072  0.4999919  )
       202           Al  tau( 202) = (  0.8749031  0.1250194  0.5000787  )
       203           Al  tau( 203) = (  0.8749720  0.9999826  0.6248171  )
       204           Al  tau( 204) = (  0.7499133  0.1249915  0.6249216  )
       205           Al  tau( 205) = (  0.7495436  0.0000131  0.7495436  )
       206           Al  tau( 206) = (  0.8746793  0.1252536  0.7493262  )
       207           Al  tau( 207) = (  0.8733486  0.9999279  0.8733486  )
       208           Al  tau( 208) = (  0.7493262  0.1252536  0.8746793  )
       209           Al  tau( 209) = (  0.7493614  0.2504567  0.9999951  )
       210           Al  tau( 210) = (  0.8743924  0.3754391  0.9997456  )
       211           Al  tau( 211) = (  0.8745341  0.2506245  0.1252420  )
       212           Al  tau( 212) = (  0.7497387  0.3750970  0.1250094  )
       213           Al  tau( 213) = (  0.7497660  0.2500512  0.2500541  )
       214           Al  tau( 214) = (  0.8743996  0.3753193  0.2503231  )
       215           Al  tau( 215) = (  0.8745404  0.2500785  0.3755282  )
       216           Al  tau( 216) = (  0.7499281  0.3749997  0.3750615  )
       217           Al  tau( 217) = (  0.7499061  0.2500188  0.5000774  )
       218           Al  tau( 218) = (  0.8749102  0.3750278  0.5000838  )
       219           Al  tau( 219) = (  0.8749372  0.2500710  0.6249231  )
       220           Al  tau( 220) = (  0.7499905  0.3750055  0.6250099  )
       221           Al  tau( 221) = (  0.7498773  0.2500454  0.7498773  )
       222           Al  tau( 222) = (  0.8749278  0.3750849  0.7498540  )
       223           Al  tau( 223) = (  0.8743008  0.2505954  0.8743008  )
       224           Al  tau( 224) = (  0.7498540  0.3750849  0.8749278  )
       225           Al  tau( 225) = (  0.7498649  0.5000703  0.9999931  )
       226           Al  tau( 226) = (  0.8749236  0.6248861  0.9999953  )
       227           Al  tau( 227) = (  0.8745165  0.5004577  0.1250259  )
       228           Al  tau( 228) = (  0.7498506  0.6250004  0.1250072  )
       229           Al  tau( 229) = (  0.7499026  0.5000686  0.2500286  )
       230           Al  tau( 230) = (  0.8749260  0.6249999  0.2500741  )
       231           Al  tau( 231) = (  0.8749313  0.5000518  0.3750684  )
       232           Al  tau( 232) = (  0.7500176  0.6249999  0.3749824  )
       233           Al  tau( 233) = (  0.7499775  0.4999946  0.4999944  )
       234           Al  tau( 234) = (  0.8749960  0.6249730  0.4999910  )
       235           Al  tau( 235) = (  0.8749673  0.5000186  0.6249810  )
       236           Al  tau( 236) = (  0.7499961  0.6250182  0.6250059  )
       237           Al  tau( 237) = (  0.7499903  0.4999894  0.7499903  )
       238           Al  tau( 238) = (  0.8750000  0.6249132  0.7499381  )
       239           Al  tau( 239) = (  0.8749273  0.5000467  0.8749273  )
       240           Al  tau( 240) = (  0.7499381  0.6249132  0.8750000  )
       241           Al  tau( 241) = (  0.7495184  0.7495383  0.9999859  )
       242           Al  tau( 242) = (  0.8733544  0.8733323  0.9999943  )
       243           Al  tau( 243) = (  0.8746922  0.7493836  0.1252578  )
       244           Al  tau( 244) = (  0.7493144  0.8746681  0.1252640  )
       245           Al  tau( 245) = (  0.7499316  0.7499481  0.2500688  )
       246           Al  tau( 246) = (  0.8746769  0.8746807  0.2506005  )
       247           Al  tau( 247) = (  0.8749715  0.7499313  0.3750974  )
       248           Al  tau( 248) = (  0.7499386  0.8750004  0.3750720  )
       249           Al  tau( 249) = (  0.7499672  0.7499781  0.5000128  )
       250           Al  tau( 250) = (  0.8749796  0.8749811  0.4999921  )
       251           Al  tau( 251) = (  0.8749658  0.7499289  0.6249204  )
       252           Al  tau( 252) = (  0.7499198  0.8749856  0.6249249  )
       253           Al  tau( 253) = (  0.7499430  0.7499535  0.7499430  )
       254           Al  tau( 254) = (  0.8747519  0.8747430  0.7493843  )
       255           Al  tau( 255) = (  0.8747272  0.7493866  0.8747272  )
       256           Al  tau( 256) = (  0.7493843  0.8747430  0.8747519  )

     number of k points=    63  Methfessel-Paxton smearing, width (Ry)=  0.0441
                       cart. coord. in units 2pi/alat
        k(    1) = (   0.0000000   0.0000000   0.0000000), wk =   0.0160000
        k(    2) = (   0.0000000   0.0000000   0.2000000), wk =   0.0320000
        k(    3) = (   0.0000000   0.0000000   0.4000000), wk =   0.0320000
        k(    4) = (   0.0000000   0.2000000   0.0000000), wk =   0.0320000
        k(    5) = (   0.0000000   0.2000000   0.2000000), wk =   0.0320000
        k(    6) = (   0.0000000   0.2000000   0.4000000), wk =   0.0320000
        k(    7) = (   0.0000000   0.2000000  -0.4000000), wk =   0.0320000
        k(    8) = (   0.0000000   0.2000000  -0.2000000), wk =   0.0320000
        k(    9) = (   0.0000000   0.4000000   0.0000000), wk =   0.0320000
        k(   10) = (   0.0000000   0.4000000   0.2000000), wk =   0.0320000
        k(   11) = (   0.0000000   0.4000000   0.4000000), wk =   0.0320000
        k(   12) = (   0.0000000   0.4000000  -0.4000000), wk =   0.0320000
        k(   13) = (   0.0000000   0.4000000  -0.2000000), wk =   0.0320000
        k(   14) = (   0.2000000   0.0000000   0.0000000), wk =   0.0320000
        k(   15) = (   0.2000000   0.0000000   0.2000000), wk =   0.0320000
        k(   16) = (   0.2000000   0.0000000   0.4000000), wk =   0.0320000
        k(   17) = (   0.2000000   0.0000000  -0.4000000), wk =   0.0320000
        k(   18) = (   0.2000000   0.0000000  -0.2000000), wk =   0.0320000
        k(   19) = (   0.2000000   0.2000000   0.0000000), wk =   0.0320000
        k(   20) = (   0.2000000   0.2000000   0.2000000), wk =   0.0320000
        k(   21) = (   0.2000000   0.2000000   0.4000000), wk =   0.0320000
        k(   22) = (   0.2000000   0.2000000  -0.4000000), wk =   0.0320000
        k(   23) = (   0.2000000   0.2000000  -0.2000000), wk =   0.0320000
        k(   24) = (   0.2000000   0.4000000   0.0000000), wk =   0.0320000
        k(   25) = (   0.2000000   0.4000000   0.2000000), wk =   0.0320000
        k(   26) = (   0.2000000   0.4000000   0.4000000), wk =   0.0320000
        k(   27) = (   0.2000000   0.4000000  -0.4000000), wk =   0.0320000
        k(   28) = (   0.2000000   0.4000000  -0.2000000), wk =   0.0320000
        k(   29) = (   0.2000000  -0.4000000   0.0000000), wk =   0.0320000
        k(   30) = (   0.2000000  -0.4000000   0.2000000), wk =   0.0320000
        k(   31) = (   0.2000000  -0.4000000   0.4000000), wk =   0.0320000
        k(   32) = (   0.2000000  -0.4000000  -0.4000000), wk =   0.0320000
        k(   33) = (   0.2000000  -0.4000000  -0.2000000), wk =   0.0320000
        k(   34) = (   0.2000000  -0.2000000   0.0000000), wk =   0.0320000
        k(   35) = (   0.2000000  -0.2000000   0.2000000), wk =   0.0320000
        k(   36) = (   0.2000000  -0.2000000   0.4000000), wk =   0.0320000
        k(   37) = (   0.2000000  -0.2000000  -0.4000000), wk =   0.0320000
        k(   38) = (   0.2000000  -0.2000000  -0.2000000), wk =   0.0320000
        k(   39) = (   0.4000000   0.0000000   0.0000000), wk =   0.0320000
        k(   40) = (   0.4000000   0.0000000   0.2000000), wk =   0.0320000
        k(   41) = (   0.4000000   0.0000000   0.4000000), wk =   0.0320000
        k(   42) = (   0.4000000   0.0000000  -0.4000000), wk =   0.0320000
        k(   43) = (   0.4000000   0.0000000  -0.2000000), wk =   0.0320000
        k(   44) = (   0.4000000   0.2000000   0.0000000), wk =   0.0320000
        k(   45) = (   0.4000000   0.2000000   0.2000000), wk =   0.0320000
        k(   46) = (   0.4000000   0.2000000   0.4000000), wk =   0.0320000
        k(   47) = (   0.4000000   0.2000000  -0.4000000), wk =   0.0320000
        k(   48) = (   0.4000000   0.2000000  -0.2000000), wk =   0.0320000
        k(   49) = (   0.4000000   0.4000000   0.0000000), wk =   0.0320000
        k(   50) = (   0.4000000   0.4000000   0.2000000), wk =   0.0320000
        k(   51) = (   0.4000000   0.4000000   0.4000000), wk =   0.0320000
        k(   52) = (   0.4000000   0.4000000  -0.4000000), wk =   0.0320000
        k(   53) = (   0.4000000   0.4000000  -0.2000000), wk =   0.0320000
        k(   54) = (   0.4000000  -0.4000000   0.0000000), wk =   0.0320000
        k(   55) = (   0.4000000  -0.4000000   0.2000000), wk =   0.0320000
        k(   56) = (   0.4000000  -0.4000000   0.4000000), wk =   0.0320000
        k(   57) = (   0.4000000  -0.4000000  -0.4000000), wk =   0.0320000
        k(   58) = (   0.4000000  -0.4000000  -0.2000000), wk =   0.0320000
        k(   59) = (   0.4000000  -0.2000000   0.0000000), wk =   0.0320000
        k(   60) = (   0.4000000  -0.2000000   0.2000000), wk =   0.0320000
        k(   61) = (   0.4000000  -0.2000000   0.4000000), wk =   0.0320000
        k(   62) = (   0.4000000  -0.2000000  -0.4000000), wk =   0.0320000
        k(   63) = (   0.4000000  -0.2000000  -0.2000000), wk =   0.0320000

                       cryst. coord.
        k(    1) = (   0.0000000   0.0000000   0.0000000), wk =   0.0160000
        k(    2) = (   0.0000000   0.0000000   0.2000000), wk =   0.0320000
        k(    3) = (   0.0000000   0.0000000   0.4000000), wk =   0.0320000
        k(    4) = (   0.0000000   0.2000000   0.0000000), wk =   0.0320000
        k(    5) = (   0.0000000   0.2000000   0.2000000), wk =   0.0320000
        k(    6) = (   0.0000000   0.2000000   0.4000000), wk =   0.0320000
        k(    7) = (   0.0000000   0.2000000  -0.4000000), wk =   0.0320000
        k(    8) = (   0.0000000   0.2000000  -0.2000000), wk =   0.0320000
        k(    9) = (   0.0000000   0.4000000   0.0000000), wk =   0.0320000
        k(   10) = (   0.0000000   0.4000000   0.2000000), wk =   0.0320000
        k(   11) = (   0.0000000   0.4000000   0.4000000), wk =   0.0320000
        k(   12) = (   0.0000000   0.4000000  -0.4000000), wk =   0.0320000
        k(   13) = (   0.0000000   0.4000000  -0.2000000), wk =   0.0320000
        k(   14) = (   0.2000000   0.0000000   0.0000000), wk =   0.0320000
        k(   15) = (   0.2000000   0.0000000   0.2000000), wk =   0.0320000
        k(   16) = (   0.2000000   0.0000000   0.4000000), wk =   0.0320000
        k(   17) = (   0.2000000   0.0000000  -0.4000000), wk =   0.0320000
        k(   18) = (   0.2000000   0.0000000  -0.2000000), wk =   0.0320000
        k(   19) = (   0.2000000   0.2000000   0.0000000), wk =   0.0320000
        k(   20) = (   0.2000000   0.2000000   0.2000000), wk =   0.0320000
        k(   21) = (   0.2000000   0.2000000   0.4000000), wk =   0.0320000
        k(   22) = (   0.2000000   0.2000000  -0.4000000), wk =   0.0320000
        k(   23) = (   0.2000000   0.2000000  -0.2000000), wk =   0.0320000
        k(   24) = (   0.2000000   0.4000000   0.0000000), wk =   0.0320000
        k(   25) = (   0.2000000   0.4000000   0.2000000), wk =   0.0320000
        k(   26) = (   0.2000000   0.4000000   0.4000000), wk =   0.0320000
        k(   27) = (   0.2000000   0.4000000  -0.4000000), wk =   0.0320000
        k(   28) = (   0.2000000   0.4000000  -0.2000000), wk =   0.0320000
        k(   29) = (   0.2000000  -0.4000000   0.0000000), wk =   0.0320000
        k(   30) = (   0.2000000  -0.4000000   0.2000000), wk =   0.0320000
        k(   31) = (   0.2000000  -0.4000000   0.4000000), wk =   0.0320000
        k(   32) = (   0.2000000  -0.4000000  -0.4000000), wk =   0.0320000
        k(   33) = (   0.2000000  -0.4000000  -0.2000000), wk =   0.0320000
        k(   34) = (   0.2000000  -0.2000000   0.0000000), wk =   0.0320000
        k(   35) = (   0.2000000  -0.2000000   0.2000000), wk =   0.0320000
        k(   36) = (   0.2000000  -0.2000000   0.4000000), wk =   0.0320000
        k(   37) = (   0.2000000  -0.2000000  -0.4000000), wk =   0.0320000
        k(   38) = (   0.2000000  -0.2000000  -0.2000000), wk =   0.0320000
        k(   39) = (   0.4000000   0.0000000   0.0000000), wk =   0.0320000
        k(   40) = (   0.4000000   0.0000000   0.2000000), wk =   0.0320000
        k(   41) = (   0.4000000   0.0000000   0.4000000), wk =   0.0320000
        k(   42) = (   0.4000000   0.0000000  -0.4000000), wk =   0.0320000
        k(   43) = (   0.4000000   0.0000000  -0.2000000), wk =   0.0320000
        k(   44) = (   0.4000000   0.2000000   0.0000000), wk =   0.0320000
        k(   45) = (   0.4000000   0.2000000   0.2000000), wk =   0.0320000
        k(   46) = (   0.4000000   0.2000000   0.4000000), wk =   0.0320000
        k(   47) = (   0.4000000   0.2000000  -0.4000000), wk =   0.0320000
        k(   48) = (   0.4000000   0.2000000  -0.2000000), wk =   0.0320000
        k(   49) = (   0.4000000   0.4000000   0.0000000), wk =   0.0320000
        k(   50) = (   0.4000000   0.4000000   0.2000000), wk =   0.0320000
        k(   51) = (   0.4000000   0.4000000   0.4000000), wk =   0.0320000
        k(   52) = (   0.4000000   0.4000000  -0.4000000), wk =   0.0320000
        k(   53) = (   0.4000000   0.4000000  -0.2000000), wk =   0.0320000
        k(   54) = (   0.4000000  -0.4000000   0.0000000), wk =   0.0320000
        k(   55) = (   0.4000000  -0.4000000   0.2000000), wk =   0.0320000
        k(   56) = (   0.4000000  -0.4000000   0.4000000), wk =   0.0320000
        k(   57) = (   0.4000000  -0.4000000  -0.4000000), wk =   0.0320000
        k(   58) = (   0.4000000  -0.4000000  -0.2000000), wk =   0.0320000
        k(   59) = (   0.4000000  -0.2000000   0.0000000), wk =   0.0320000
        k(   60) = (   0.4000000  -0.2000000   0.2000000), wk =   0.0320000
        k(   61) = (   0.4000000  -0.2000000   0.4000000), wk =   0.0320000
        k(   62) = (   0.4000000  -0.2000000  -0.4000000), wk =   0.0320000
        k(   63) = (   0.4000000  -0.2000000  -0.2000000), wk =   0.0320000

     Dense  grid:  3895379 G-vectors     FFT dimensions: ( 200, 200, 200)

     Smooth grid:   985619 G-vectors     FFT dimensions: ( 125, 125, 125)

     Dynamical RAM for                 wfc:     108.09 MB

     Dynamical RAM for     wfc (w. buffer):     324.28 MB

     Dynamical RAM for           str. fact:      14.86 MB

     Dynamical RAM for           local pot:       0.00 MB

     Dynamical RAM for          nlocal pot:    1078.11 MB

     Dynamical RAM for                qrad:      15.65 MB

     Dynamical RAM for          rho,v,vnew:      45.18 MB

     Dynamical RAM for               rhoin:      15.06 MB

     Dynamical RAM for            rho*nmix:     118.88 MB

     Dynamical RAM for           G-vectors:      28.80 MB

     Dynamical RAM for          h,s,v(r/c):      38.75 MB

     Dynamical RAM for          <psi|beta>:      32.20 MB

     Dynamical RAM for                 psi:     432.37 MB

     Dynamical RAM for                hpsi:     432.37 MB

     Dynamical RAM for                spsi:     432.37 MB

     Dynamical RAM for      wfcinit/wfcrot:     505.26 MB

     Dynamical RAM for           addusdens:      98.03 MB

     Dynamical RAM for          addusforce:     201.19 MB

     Dynamical RAM for         addusstress:      45.09 MB

     Estimated static dynamical RAM per process >       1.66 GB

     Estimated max dynamical RAM per process >       3.00 GB

     Estimated total dynamical RAM >     863.25 GB

     Initial potential from superposition of free atoms

     starting charge  765.41644, renormalised to  766.00000
     Starting wfcs are 1024 randomized atomic wfcs
     Checking if some PAW data can be deallocated... 
       PAW data deallocated on  284 nodes for type:  1
       PAW data deallocated on    4 nodes for type:  2

     total cpu time spent up to now is      205.4 secs

     Self-consistent Calculation

     iteration #  1     ecut=    40.00 Ry     beta= 0.40
     Davidson diagonalization with overlap
     ethr =  1.00E-02,  avg # of iterations =  3.0

     Threshold (ethr) on eigenvalues was too large:
     Diagonalizing with lowered threshold

     Davidson diagonalization with overlap
     ethr =  1.95E-04,  avg # of iterations =  8.5

     total cpu time spent up to now is     1003.4 secs

     total energy              =  -10101.10773407 Ry
     Harris-Foulkes estimate   =  -10101.27793605 Ry
     estimated scf accuracy    <       1.52374812 Ry

     iteration #  2     ecut=    40.00 Ry     beta= 0.40
     Davidson diagonalization with overlap
     ethr =  1.99E-04,  avg # of iterations =  1.1

     total cpu time spent up to now is     1230.0 secs

     total energy              =  -10100.89482643 Ry
     Harris-Foulkes estimate   =  -10101.11516970 Ry
     estimated scf accuracy    <       0.79512988 Ry

     iteration #  3     ecut=    40.00 Ry     beta= 0.40
     Davidson diagonalization with overlap
     ethr =  1.04E-04,  avg # of iterations =  1.0

     total cpu time spent up to now is     1456.4 secs

     total energy              =  -10100.91389840 Ry
     Harris-Foulkes estimate   =  -10100.91591498 Ry
     estimated scf accuracy    <       0.00436094 Ry

     iteration #  4     ecut=    40.00 Ry     beta= 0.40
     Davidson diagonalization with overlap
     c_bands:  4 eigenvalues not converged
     ethr =  5.69E-07,  avg # of iterations = 19.3

     total cpu time spent up to now is     2176.1 secs

     total energy              =  -10100.91842954 Ry
     Harris-Foulkes estimate   =  -10100.91830324 Ry
     estimated scf accuracy    <       0.01017840 Ry

     iteration #  5     ecut=    40.00 Ry     beta= 0.40
     Davidson diagonalization with overlap
     c_bands:  1 eigenvalues not converged
     ethr =  5.69E-07,  avg # of iterations =  6.9

     total cpu time spent up to now is     2464.6 secs

     total energy              =  -10100.91322617 Ry
     Harris-Foulkes estimate   =  -10100.91844913 Ry
     estimated scf accuracy    <       0.01345325 Ry

     iteration #  6     ecut=    40.00 Ry     beta= 0.40
     Davidson diagonalization with overlap
     ethr =  5.69E-07,  avg # of iterations =  9.5

     total cpu time spent up to now is     2963.7 secs

     total energy              =  -10100.91571782 Ry
     Harris-Foulkes estimate   =  -10100.92081583 Ry
     estimated scf accuracy    <       0.05669028 Ry

     iteration #  7     ecut=    40.00 Ry     beta= 0.40
     Davidson diagonalization with overlap
     ethr =  5.69E-07,  avg # of iterations =  3.1

     total cpu time spent up to now is     3244.3 secs

     total energy              =  -10100.91696154 Ry
     Harris-Foulkes estimate   =  -10100.91720518 Ry
     estimated scf accuracy    <       0.00731955 Ry

     iteration #  8     ecut=    40.00 Ry     beta= 0.40
     Davidson diagonalization with overlap
     ethr =  5.69E-07,  avg # of iterations =  1.0

     total cpu time spent up to now is     3470.7 secs

     total energy              =  -10100.91649197 Ry
     Harris-Foulkes estimate   =  -10100.91699874 Ry
     estimated scf accuracy    <       0.00486318 Ry

     iteration #  9     ecut=    40.00 Ry     beta= 0.40
     Davidson diagonalization with overlap
     ethr =  5.69E-07,  avg # of iterations =  2.5

     total cpu time spent up to now is     3704.3 secs

     total energy              =  -10100.91668066 Ry
     Harris-Foulkes estimate   =  -10100.91670001 Ry
     estimated scf accuracy    <       0.00033473 Ry

     iteration # 10     ecut=    40.00 Ry     beta= 0.40
     Davidson diagonalization with overlap
     ethr =  4.37E-08,  avg # of iterations =  4.9

     total cpu time spent up to now is     4036.5 secs

     total energy              =  -10100.91676516 Ry
     Harris-Foulkes estimate   =  -10100.91676600 Ry
     estimated scf accuracy    <       0.00001564 Ry

     iteration # 11     ecut=    40.00 Ry     beta= 0.40
     Davidson diagonalization with overlap
     ethr =  2.04E-09,  avg # of iterations =  3.4

     total cpu time spent up to now is     4295.5 secs

     total energy              =  -10100.91676587 Ry
     Harris-Foulkes estimate   =  -10100.91676596 Ry
     estimated scf accuracy    <       0.00001654 Ry

     iteration # 12     ecut=    40.00 Ry     beta= 0.40
     Davidson diagonalization with overlap
     ethr =  2.04E-09,  avg # of iterations =  1.0

     total cpu time spent up to now is     4521.6 secs

     total energy              =  -10100.91676690 Ry
     Harris-Foulkes estimate   =  -10100.91676591 Ry
     estimated scf accuracy    <       0.00001557 Ry

     iteration # 13     ecut=    40.00 Ry     beta= 0.40
     Davidson diagonalization with overlap
     ethr =  2.03E-09,  avg # of iterations =  2.3

     total cpu time spent up to now is     4762.3 secs

     total energy              =  -10100.91676251 Ry
     Harris-Foulkes estimate   =  -10100.91676815 Ry
     estimated scf accuracy    <       0.00005172 Ry

     iteration # 14     ecut=    40.00 Ry     beta= 0.40
     Davidson diagonalization with overlap
     ethr =  2.03E-09,  avg # of iterations =  2.4

     total cpu time spent up to now is     5013.3 secs

     total energy              =  -10100.91676454 Ry
     Harris-Foulkes estimate   =  -10100.91676443 Ry
     estimated scf accuracy    <       0.00000368 Ry

     iteration # 15     ecut=    40.00 Ry     beta= 0.40
     Davidson diagonalization with overlap
     ethr =  4.80E-10,  avg # of iterations =  2.0

     total cpu time spent up to now is     5243.0 secs

     total energy              =  -10100.91676435 Ry
     Harris-Foulkes estimate   =  -10100.91676463 Ry
     estimated scf accuracy    <       0.00000578 Ry

     iteration # 16     ecut=    40.00 Ry     beta= 0.40
     Davidson diagonalization with overlap
     ethr =  4.80E-10,  avg # of iterations =  1.0

     total cpu time spent up to now is     5469.1 secs

     total energy              =  -10100.91676381 Ry
     Harris-Foulkes estimate   =  -10100.91676441 Ry
     estimated scf accuracy    <       0.00000333 Ry

     iteration # 17     ecut=    40.00 Ry     beta= 0.40
     Davidson diagonalization with overlap
     ethr =  4.35E-10,  avg # of iterations =  3.4

     total cpu time spent up to now is     5752.3 secs

     total energy              =  -10100.91676440 Ry
     Harris-Foulkes estimate   =  -10100.91676447 Ry
     estimated scf accuracy    <       0.00000274 Ry

     iteration # 18     ecut=    40.00 Ry     beta= 0.40
     Davidson diagonalization with overlap
     ethr =  3.58E-10,  avg # of iterations =  1.0

     total cpu time spent up to now is     5978.3 secs

     total energy              =  -10100.91676400 Ry
     Harris-Foulkes estimate   =  -10100.91676440 Ry
     estimated scf accuracy    <       0.00000221 Ry

     iteration # 19     ecut=    40.00 Ry     beta= 0.40
     Davidson diagonalization with overlap
     ethr =  2.88E-10,  avg # of iterations =  2.2

     total cpu time spent up to now is     6234.2 secs

     total energy              =  -10100.91676426 Ry
     Harris-Foulkes estimate   =  -10100.91676426 Ry
     estimated scf accuracy    <       0.00000055 Ry

     iteration # 20     ecut=    40.00 Ry     beta= 0.40
     Davidson diagonalization with overlap
     ethr =  7.16E-11,  avg # of iterations =  1.1

     total cpu time spent up to now is     6460.4 secs

     total energy              =  -10100.91676422 Ry
     Harris-Foulkes estimate   =  -10100.91676426 Ry
     estimated scf accuracy    <       0.00000049 Ry

     iteration # 21     ecut=    40.00 Ry     beta= 0.40
     Davidson diagonalization with overlap
     ethr =  6.34E-11,  avg # of iterations =  1.1

     total cpu time spent up to now is     6686.5 secs

     total energy              =  -10100.91676419 Ry
     Harris-Foulkes estimate   =  -10100.91676423 Ry
     estimated scf accuracy    <       0.00000013 Ry

     iteration # 22     ecut=    40.00 Ry     beta= 0.40
     Davidson diagonalization with overlap
     ethr =  1.64E-11,  avg # of iterations =  3.4

     total cpu time spent up to now is     6953.8 secs

     total energy              =  -10100.91676420 Ry
     Harris-Foulkes estimate   =  -10100.91676420 Ry
     estimated scf accuracy    <          3.7E-09 Ry

     iteration # 23     ecut=    40.00 Ry     beta= 0.40
     Davidson diagonalization with overlap
     ethr =  4.85E-13,  avg # of iterations =  4.9

     total cpu time spent up to now is     7429.0 secs

     total energy              =  -10100.91676418 Ry
     Harris-Foulkes estimate   =  -10100.91676418 Ry
     estimated scf accuracy    <          5.5E-09 Ry

     iteration # 24     ecut=    40.00 Ry     beta= 0.40
     Davidson diagonalization with overlap
     ethr =  4.85E-13,  avg # of iterations =  2.0

     total cpu time spent up to now is     7675.3 secs

     total energy              =  -10100.91676417 Ry
     Harris-Foulkes estimate   =  -10100.91676418 Ry
     estimated scf accuracy    <          8.0E-10 Ry

     iteration # 25     ecut=    40.00 Ry     beta= 0.40
     Davidson diagonalization with overlap
     ethr =  1.05E-13,  avg # of iterations =  2.1

     total cpu time spent up to now is     7908.5 secs

     total energy              =  -10100.91676417 Ry
     Harris-Foulkes estimate   =  -10100.91676417 Ry
     estimated scf accuracy    <          8.3E-10 Ry

     iteration # 26     ecut=    40.00 Ry     beta= 0.40
     Davidson diagonalization with overlap
     ethr =  1.05E-13,  avg # of iterations =  2.0

     total cpu time spent up to now is     8146.9 secs

     total energy              =  -10100.91676417 Ry
     Harris-Foulkes estimate   =  -10100.91676417 Ry
     estimated scf accuracy    <          2.2E-10 Ry

     iteration # 27     ecut=    40.00 Ry     beta= 0.40
     Davidson diagonalization with overlap
     ethr =  1.00E-13,  avg # of iterations =  1.0

     total cpu time spent up to now is     8373.3 secs

     total energy              =  -10100.91676417 Ry
     Harris-Foulkes estimate   =  -10100.91676417 Ry
     estimated scf accuracy    <          2.0E-11 Ry

     iteration # 28     ecut=    40.00 Ry     beta= 0.40
     Davidson diagonalization with overlap
     ethr =  1.00E-13,  avg # of iterations =  1.0

     total cpu time spent up to now is     8599.5 secs

     total energy              =  -10100.91676417 Ry
     Harris-Foulkes estimate   =  -10100.91676417 Ry
     estimated scf accuracy    <          2.7E-12 Ry

     iteration # 29     ecut=    40.00 Ry     beta= 0.40
     Davidson diagonalization with overlap
     ethr =  1.00E-13,  avg # of iterations =  1.0

     total cpu time spent up to now is     8825.5 secs

     total energy              =  -10100.91676417 Ry
     Harris-Foulkes estimate   =  -10100.91676417 Ry
     estimated scf accuracy    <          1.3E-12 Ry

     iteration # 30     ecut=    40.00 Ry     beta= 0.40
     Davidson diagonalization with overlap
     ethr =  1.00E-13,  avg # of iterations =  1.0

     total cpu time spent up to now is     9050.4 secs

     End of self-consistent calculation

          k = 0.0000 0.0000 0.0000 (123065 PWs)   bands (ev):

    -3.2804  -2.7374  -2.7362  -2.7347  -2.7343  -2.7078  -2.6612  -2.1814
    -2.1798  -2.1796  -2.1788  -2.1787  -2.1743  -2.1730  -2.1662  -2.1620
    -2.1616  -2.0946  -2.0482  -1.6211  -1.6209  -1.6117  -1.6114  -1.6059
    -1.6057  -1.5584  -1.5408  -1.0600  -1.0571  -1.0567  -1.0513  -1.0278
    -1.0149  -0.5188  -0.5181  -0.5164  -0.5163  -0.5160  -0.5156  -0.5155
    -0.5145  -0.5125  -0.5117  -0.5117  -0.5112  -0.5099  -0.5052  -0.5048
    -0.5024  -0.4988  -0.4879  -0.4807  -0.4724  -0.4716  -0.4539  -0.3871
    -0.3468   0.0330   0.0335   0.0340   0.0346   0.0348   0.0349   0.0375
     0.0384   0.0388   0.0394   0.0410   0.0420   0.0421   0.0446   0.0448
     0.0467   0.0593   0.0703   0.0704   0.0842   0.0881   0.1080   0.2092
     0.2855   1.1342   1.1370   1.1374   1.1380   1.1418   1.1436   1.1534
     1.1556   1.1574   1.1620   1.2003   1.2017   1.6705   1.6707   1.6720
     1.6724   1.6724   1.6742   1.6747   1.6750   1.6752   1.6763   1.6773
     1.6783   1.6790   1.6803   1.6804   1.6824   1.6828   1.6854   1.6861
     1.6878   1.6905   1.6926   1.7097   1.7182   1.7335   1.7365   1.7410
     1.7467   1.8208   1.8414   2.2062   2.2078   2.2097   2.2098   2.2102
     2.2113   2.2121   2.2134   2.2140   2.2141   2.2150   2.2176   2.2208
     2.2217   2.2238   2.2291   2.2455   2.2496   2.2554   2.2576   2.2706
     2.2857   2.3378   2.3857   2.7491   2.7493   2.7505   2.7507   2.7528
     2.7531   2.7550   2.7552   2.7581   2.7581   2.7626   2.7626   2.7676
     2.7678   2.7687   2.7689   2.7914   2.7930   2.7999   2.8008   2.8022
     2.8108   2.9037   2.9366   3.2303   3.2323   3.2390   3.2415   3.4068
     3.4075   3.4398   3.4531   3.8182   3.8198   3.8219   3.8235   3.8235
     3.8280   3.8283   3.8295   3.8314   3.8332   3.8353   3.8356   3.8366
     3.8427   3.8447   3.8454   3.8465   3.8527   3.8602   3.8790   3.8807
     3.8895   3.9268   3.9448   4.2471   4.2472   4.2476   4.2480   4.2489
     4.2504   4.2515   4.2523   4.2524   4.2543   4.2554   4.2578   4.2588
     4.2601   4.2619   4.2656   4.2715   4.2750   4.2935   4.3236   4.3273
     4.3279   4.3405   4.3711   4.4767   4.4784   4.4786   4.4786   4.4800
     4.4805   4.4819   4.4831   4.4849   4.4851   4.4893   4.4916   4.4924
     4.4957   4.5063   4.5115   4.5116   4.5170   4.5237   4.5265   4.5283
     4.5306   4.7274   4.7995   4.8881   4.8882   4.8902   5.3770   5.3774
     5.3780   5.3781   5.3806   5.3816   5.3944   5.4100   5.4107   5.4430
     5.4477   5.4575   5.8935   5.8968   5.8969   5.8999   5.9008   5.9014
     5.9124   5.9255   5.9261   5.9272   5.9343   5.9394   5.9646   5.9655
     5.9672   5.9676   5.9677   5.9680   5.9681   5.9694   5.9695   5.9701
     5.9770   5.9777   5.9780   5.9846   5.9925   6.0018   6.0046   6.0116
     6.0322   6.0457   6.0557   6.0618   6.0633   6.0677   6.1730   6.1923
     6.2137   6.4204   6.4276   6.4307   6.4319   6.4326   6.4369   6.4421
     6.4462   6.4511   6.4608   6.4672   6.4677   6.6986   6.6988   6.7026
     6.7034   6.7041   6.7044   6.7159   6.7200   6.7319   6.7377   6.7964
     6.8040   6.9307   6.9314   6.9344   6.9345   6.9378   6.9406   6.9439
     6.9497   6.9549   6.9569   6.9607   6.9653   7.0096   7.0097   7.0141
     7.0141   7.0142   7.0142   7.0188   7.0189   7.0202   7.0216   7.0254
     7.0260   7.0325   7.0327   7.0346   7.0355   7.0425   7.0452   7.0732
     7.0782   7.0809   7.0956   7.1074   7.1140   7.3445   7.3477   7.3484
     7.3490   7.3491   7.3512   7.3569   7.3616   7.3629   7.3676   7.4392
     7.4401   7.4403   7.4413   7.4448   7.4454   7.4457   7.4477   7.4508
     7.4512   7.4528   7.4574   7.4619   7.4623   7.4678   7.4719   7.4807
     7.4809   7.5021   7.5037   7.5217   7.5424   7.5510   7.5619   7.5692
     7.5775   7.9536   7.9671   7.9778   7.9783   7.9784   7.9824   8.5860
     8.5863   8.5871   8.5874   8.5875   8.5876   8.5886   8.5893   8.5906
     8.5909   8.5997   8.6018   8.6024   8.6031   8.6079   8.6097   8.6299
     8.6334   8.6446   8.6452   8.6500   8.6553   8.6568   8.6602   8.8135
     8.8143   8.8144   8.8153   8.8358   8.8393   8.8865   8.8871   8.8884
     8.8900   8.8909   8.8923   8.8929   8.8940   8.8950   8.8972   8.8979
     8.9016   8.9078   8.9102   8.9105   8.9163   8.9206   8.9302   8.9351
     8.9410   8.9430   8.9521   9.0046

     occupation numbers 
     1.0000   1.0000   1.0000   1.0000   1.0000   1.0000   1.0000   1.0000
     1.0000   1.0000   1.0000   1.0000   1.0000   1.0000   1.0000   1.0000
     1.0000   1.0000   1.0000   1.0000   1.0000   1.0000   1.0000   1.0000
     1.0000   1.0000   1.0000   1.0000   1.0000   1.0000   1.0000   1.0000
     1.0000   1.0000   1.0000   1.0000   1.0000   1.0000   1.0000   1.0000
     1.0000   1.0000   1.0000   1.0000   1.0000   1.0000   1.0000   1.0000
     1.0000   1.0000   1.0000   1.0000   1.0000   1.0000   1.0000   1.0000
     1.0000   1.0000   1.0000   1.0000   1.0000   1.0000   1.0000   1.0000
     1.0000   1.0000   1.0000   1.0000   1.0000   1.0000   1.0000   1.0000
     1.0000   1.0000   1.0000   1.0000   1.0000   1.0000   1.0000   1.0000
     1.0000   1.0000   1.0000   1.0000   1.0000   1.0000   1.0000   1.0000
     1.0000   1.0000   1.0000   1.0000   1.0000   1.0000   1.0000   1.0000
     1.0000   1.0000   1.0000   1.0000   1.0000   1.0000   1.0000   1.0000
     1.0000   1.0000   1.0000   1.0000   1.0000   1.0000   1.0000   1.0000
     1.0000   1.0000   1.0000   1.0000   1.0000   1.0000   1.0000   1.0000
     1.0000   1.0000   1.0000   1.0000   1.0000   1.0000   1.0000   1.0000
     1.0000   1.0000   1.0000   1.0000   1.0000   1.0000   1.0000   1.0000
     1.0000   1.0000   1.0000   1.0000   1.0000   1.0000   1.0000   1.0000
     1.0000   1.0000   1.0000   1.0000   1.0000   1.0000   1.0000   1.0000
     1.0000   1.0000   1.0000   1.0000   1.0000   1.0000   1.0000   1.0000
     1.0000   1.0000   1.0000   1.0000   1.0000   1.0000   1.0000   1.0000
     1.0000   1.0000   1.0000   1.0000   1.0000   1.0000   1.0000   1.0000
     1.0000   1.0000   1.0000   1.0000   1.0000   1.0000   1.0000   1.0000
     1.0000   1.0000   1.0000   1.0000   1.0000   1.0000   1.0000   1.0000
     1.0000   1.0000   1.0000   1.0000   1.0000   1.0000   1.0000   1.0000
     1.0000   1.0000   1.0000   1.0000   1.0000   1.0000   1.0000   1.0000
     1.0000   1.0000   1.0000   1.0000   1.0000   1.0000   1.0000   1.0000
     1.0000   1.0000   1.0000   1.0000   1.0000   1.0000   1.0000   1.0000
     1.0000   1.0000   1.0000   1.0000   1.0000   1.0000   1.0000   1.0000
     1.0000   1.0000   1.0000   1.0000   1.0000   1.0000   1.0000   1.0000
     1.0000   1.0000   1.0000   1.0000   1.0000   1.0000   1.0000   1.0000
     1.0000   1.0000   1.0000   1.0000   1.0000   1.0000   1.0000   1.0000
     1.0000   1.0000   1.0000   1.0000   1.0000   1.0000   1.0000   1.0000
     1.0000   1.0000   1.0000   1.0000   1.0000   1.0000   1.0000   1.0000
     1.0001   1.0001   1.0001   1.0001   1.0001   1.0001   1.0001   1.0001
     1.0001   1.0001   1.0001   1.0001   1.0001   1.0001   1.0001   1.0001
     1.0001   1.0001   1.0001   1.0001   1.0001   1.0001   1.0001   1.0001
     1.0002   1.0002   1.0002   1.0002   1.0002   1.0002   1.0005   1.0006
     1.0007   1.0032   1.0034   1.0034   1.0035   1.0035   1.0036   1.0037
     1.0038   1.0039   1.0041   1.0043   1.0043   1.0147   1.0147   1.0150
     1.0150   1.0151   1.0151   1.0159   1.0162   1.0170   1.0174   1.0217
     1.0223   1.0316   1.0316   1.0318   1.0318   1.0320   1.0322   1.0324
     1.0327   1.0330   1.0331   1.0333   1.0335   1.0351   1.0351   1.0352
     1.0352   1.0352   1.0352   1.0353   1.0353   1.0353   1.0353   1.0354
     1.0354   1.0354   1.0354   1.0354   1.0355   1.0355   1.0354   1.0349
     1.0347   1.0346   1.0339   1.0331   1.0326   0.9653   0.9634   0.9630
     0.9627   0.9626   0.9614   0.9582   0.9554   0.9545   0.9517   0.9002
     0.8995   0.8994   0.8985   0.8956   0.8951   0.8949   0.8932   0.8905
     0.8902   0.8888   0.8849   0.8809   0.8806   0.8757   0.8720   0.8638
     0.8637   0.8432   0.8417   0.8233   0.8012   0.7917   0.7794   0.7710
     0.7613   0.2588   0.2426   0.2300   0.2295   0.2294   0.2248  -0.0333
    -0.0333  -0.0333  -0.0333  -0.0333  -0.0332  -0.0332  -0.0332  -0.0331
    -0.0331  -0.0326  -0.0325  -0.0325  -0.0324  -0.0321  -0.0320  -0.0308
    -0.0305  -0.0298  -0.0297  -0.0294  -0.0290  -0.0289  -0.0287  -0.0172
    -0.0171  -0.0171  -0.0170  -0.0156  -0.0154  -0.0124  -0.0124  -0.0123
    -0.0122  -0.0122  -0.0121  -0.0121  -0.0120  -0.0119  -0.0118  -0.0118
    -0.0116  -0.0112  -0.0111  -0.0111  -0.0108  -0.0105  -0.0100  -0.0098
    -0.0095  -0.0094  -0.0090  -0.0068

          k = 0.0000 0.0000 0.2000 (123202 PWs)   bands (ev):

    -3.2581  -2.9225  -2.7140  -2.7121  -2.6913  -2.6700  -2.4723  -2.3784
    -2.3766  -2.3546  -2.3277  -2.1496  -2.1492  -2.1234  -2.1174  -1.9320
    -1.9300  -1.9062  -1.8802  -1.8149  -1.8144  -1.7801  -1.7629  -1.4654
    -1.3705  -1.3703  -1.3407  -1.3306  -1.0372  -1.0295  -1.0221  -1.0094
    -0.9328  -0.9308  -0.9063  -0.8738  -0.7055  -0.6981  -0.6873  -0.6760
    -0.5821  -0.4918  -0.4911  -0.4851  -0.4785  -0.4741  -0.4623  -0.4579
    -0.4369  -0.3745  -0.3745  -0.3408  -0.3371  -0.2639  -0.2554  -0.2493
    -0.2304  -0.1612  -0.1603  -0.1540  -0.1454  -0.1401  -0.1241  -0.1055
    -0.0708  -0.0503  -0.0484  -0.0082   0.0378   0.2784   0.2792   0.2854
     0.2936   0.2979   0.3129   0.3259   0.3687   0.5048   0.5054   0.5569
     0.5696   0.7241   0.7326   0.7440   0.7710   1.0627   1.1672   1.1685
     1.1792   1.1812   1.2625   1.2632   1.2692   1.2773   1.2816   1.2954
     1.3036   1.3426   1.4958   1.4980   1.5099   1.5176   1.5864   1.5885
     1.5954   1.6035   1.6111   1.6240   1.6357   1.6553   1.7034   1.7119
     1.7231   1.7409   1.9294   1.9304   1.9425   1.9432   2.0273   2.0353
     2.0417   2.0475   2.1310   2.1316   2.1342   2.1345   2.1381   2.1440
     2.1491   2.1611   2.1658   2.1740   2.1789   2.2026   2.2400   2.2401
     2.2500   2.2518   2.2602   2.2635   2.2987   2.3096   2.3663   2.4611
     2.4714   2.4819   2.4949   2.5640   2.5642   2.5729   2.5754   2.5853
     2.5902   2.6283   2.6448   2.8744   2.8763   2.8990   2.9003   2.9045
     2.9144   2.9195   2.9347   2.9944   2.9946   3.0043   3.0054   3.0167
     3.0196   3.0637   3.0841   3.2138   3.2222   3.2344   3.2564   3.4165
     3.4167   3.4302   3.4381   3.4468   3.4506   3.4641   3.4773   3.7340
     3.7346   3.7404   3.7476   3.7521   3.7649   3.7715   3.7765   3.7785
     3.7916   3.8020   3.8091   3.8473   3.8476   3.8608   3.8635   3.8752
     3.8780   3.8911   3.8997   3.9511   3.9513   3.9607   3.9621   3.9738
     3.9790   4.0124   4.0287   4.1586   4.1592   4.1735   4.1795   4.1936
     4.1982   4.2196   4.2287   4.2845   4.2951   4.3042   4.3126   4.4803
     4.4844   4.4930   4.5047   4.5261   4.6174   4.6177   4.6305   4.6319
     4.6472   4.6528   4.6683   4.6859   4.8356   4.8360   4.8423   4.8459
     4.8502   4.8575   4.8876   4.9031   4.9123   4.9137   4.9789   4.9808
     5.0118   5.0344   5.0350   5.0426   5.0459   5.0506   5.0544   5.0699
     5.1186   5.1972   5.2142   5.2163   5.3687   5.3699   5.3848   5.3887
     5.4079   5.4208   5.4258   5.4359   5.5014   5.5019   5.5393   5.5440
     5.5659   5.5662   5.5780   5.5799   5.5940   5.6025   5.6172   5.6327
     5.6376   5.6487   5.7187   5.7355   5.7487   5.7626   5.8579   5.8671
     5.8788   5.8863   6.1300   6.1463   6.1498   6.1658   6.2050   6.2067
     6.4087   6.4094   6.4120   6.4128   6.4169   6.4173   6.4209   6.4235
     6.4277   6.4295   6.4365   6.4387   6.4427   6.4493   6.4520   6.4624
     6.4986   6.5023   6.5054   6.5102   6.5323   6.5376   6.5461   6.5500
     6.5674   6.5736   6.5850   6.6071   6.6213   6.6304   6.6317   6.6554
     6.6649   6.7292   6.7357   6.7547   6.7704   6.8383   6.8430   6.8469
     6.8506   6.8774   6.8790   6.8887   6.9007   6.9594   6.9680   6.9699
     6.9735   6.9763   6.9834   7.0596   7.0722   7.0750   7.0754   7.0764
     7.0828   7.0890   7.0971   7.0991   7.1164   7.1353   7.1383   7.1411
     7.1703   7.2014   7.2068   7.2571   7.2616   7.2623   7.2676   7.2735
     7.2961   7.3078   7.3117   7.3555   7.3562   7.3828   7.3964   7.4019
     7.4142   7.5560   7.5636   7.5840   7.6099   7.6552   7.6567   7.6618
     7.6623   7.6656   7.6764   7.6842   7.6928   7.6977   7.7128   7.7185
     7.7243   7.7489   7.7496   7.8133   7.8156   7.8485   7.8496   7.8919
[...]
     atom   75 type  2   force =    -0.00000003    0.00000004   -0.00000000
     atom   76 type  2   force =    -0.00000003   -0.00000003    0.00000000
     atom   77 type  2   force =    -0.00000004    0.00000003    0.00000002
     atom   78 type  2   force =    -0.00000000    0.00000002    0.00000004
     atom   79 type  2   force =    -0.00000001    0.00000003    0.00000004
     atom   80 type  2   force =    -0.00000003    0.00000000    0.00000005
     atom   81 type  2   force =    -0.00000006   -0.00000002    0.00000003
     atom   82 type  2   force =    -0.00000002   -0.00000002    0.00000000
     atom   83 type  2   force =    -0.00000004   -0.00000001   -0.00000002
     atom   84 type  2   force =    -0.00000006   -0.00000005   -0.00000002
     atom   85 type  2   force =    -0.00000006   -0.00000002   -0.00000008
     atom   86 type  2   force =    -0.00000002   -0.00000004   -0.00000005
     atom   87 type  2   force =    -0.00000000   -0.00000003   -0.00000004
     atom   88 type  2   force =    -0.00000004   -0.00000002   -0.00000004
     atom   89 type  2   force =    -0.00000003   -0.00000004   -0.00000001
     atom   90 type  2   force =    -0.00000002   -0.00000002   -0.00000001
     atom   91 type  2   force =    -0.00000001   -0.00000004    0.00000003
     atom   92 type  2   force =    -0.00000003    0.00000000    0.00000003
     atom   93 type  2   force =    -0.00000000   -0.00000002    0.00000005
     atom   94 type  2   force =    -0.00000003   -0.00000004    0.00000006
     atom   95 type  2   force =     0.00000000   -0.00000002    0.00000003
     atom   96 type  2   force =    -0.00000002    0.00000001    0.00000004
     atom   97 type  2   force =    -0.00000004    0.00000000   -0.00000002
     atom   98 type  2   force =    -0.00000003   -0.00000000    0.00000000
     atom   99 type  2   force =    -0.00000002   -0.00000001   -0.00000005
     atom  100 type  2   force =    -0.00000003    0.00000000   -0.00000006
     atom  101 type  2   force =    -0.00000005   -0.00000003   -0.00000005
     atom  102 type  2   force =    -0.00000001    0.00000003   -0.00000005
     atom  103 type  2   force =    -0.00000003   -0.00000002   -0.00000002
     atom  104 type  2   force =    -0.00000003    0.00000001   -0.00000001
     atom  105 type  2   force =    -0.00000004    0.00000001    0.00000000
     atom  106 type  2   force =    -0.00000007    0.00000001   -0.00000002
     atom  107 type  2   force =    -0.00000007   -0.00000001    0.00000002
     atom  108 type  2   force =    -0.00000005   -0.00000001    0.00000003
     atom  109 type  2   force =    -0.00000006    0.00000001    0.00000006
     atom  110 type  2   force =    -0.00000007   -0.00000000    0.00000006
     atom  111 type  2   force =    -0.00000005   -0.00000001    0.00000006
     atom  112 type  2   force =    -0.00000007   -0.00000002    0.00000004
     atom  113 type  2   force =    -0.00000003   -0.00000002   -0.00000000
     atom  114 type  2   force =    -0.00000001    0.00000002    0.00000002
     atom  115 type  2   force =    -0.00000001    0.00000001   -0.00000002
     atom  116 type  2   force =    -0.00000004    0.00000002   -0.00000003
     atom  117 type  2   force =    -0.00000001    0.00000003   -0.00000003
     atom  118 type  2   force =    -0.00000001    0.00000002   -0.00000002
     atom  119 type  2   force =    -0.00000004    0.00000003   -0.00000004
     atom  120 type  2   force =    -0.00000001    0.00000003   -0.00000001
     atom  121 type  2   force =    -0.00000003    0.00000002   -0.00000001
     atom  122 type  2   force =    -0.00000005    0.00000005   -0.00000004
     atom  123 type  2   force =    -0.00000006    0.00000001    0.00000001
     atom  124 type  2   force =    -0.00000005    0.00000003   -0.00000001
     atom  125 type  2   force =    -0.00000006   -0.00000002    0.00000005
     atom  126 type  2   force =    -0.00000002    0.00000002    0.00000004
     atom  127 type  2   force =    -0.00000002   -0.00000001    0.00000005
     atom  128 type  2   force =    -0.00000005    0.00000001    0.00000004
     atom  129 type  2   force =     0.00000003    0.00000003    0.00000001
     atom  130 type  2   force =     0.00000001   -0.00000002   -0.00000001
     atom  131 type  2   force =     0.00000002    0.00000001   -0.00000001
     atom  132 type  2   force =     0.00000001   -0.00000001   -0.00000002
     atom  133 type  2   force =     0.00000003    0.00000001   -0.00000002
     atom  134 type  2   force =     0.00000002   -0.00000003   -0.00000001
     atom  135 type  2   force =     0.00000003    0.00000003   -0.00000005
     atom  136 type  2   force =     0.00000002   -0.00000002   -0.00000004
     atom  137 type  2   force =    -0.00000000    0.00000004   -0.00000003
     atom  138 type  2   force =     0.00000004   -0.00000002   -0.00000002
     atom  139 type  2   force =     0.00000007    0.00000003    0.00000004
     atom  140 type  2   force =     0.00000001   -0.00000001    0.00000003
     atom  141 type  2   force =     0.00000004    0.00000004    0.00000004
     atom  142 type  2   force =     0.00000004   -0.00000002    0.00000004
     atom  143 type  2   force =     0.00000004    0.00000003    0.00000002
     atom  144 type  2   force =     0.00000002    0.00000001    0.00000003
     atom  145 type  2   force =    -0.00000000   -0.00000003   -0.00000001
     atom  146 type  2   force =    -0.00000001   -0.00000000    0.00000001
     atom  147 type  2   force =    -0.00000001   -0.00000003   -0.00000002
     atom  148 type  2   force =     0.00000000   -0.00000002   -0.00000003
     atom  149 type  2   force =     0.00000000   -0.00000003   -0.00000003
     atom  150 type  2   force =     0.00000001   -0.00000002   -0.00000003
     atom  151 type  2   force =     0.00000002   -0.00000004   -0.00000003
     atom  152 type  2   force =     0.00000001   -0.00000005   -0.00000005
     atom  153 type  2   force =     0.00000001   -0.00000004   -0.00000002
     atom  154 type  2   force =     0.00000003   -0.00000006   -0.00000003
     atom  155 type  2   force =     0.00000003   -0.00000006    0.00000002
     atom  156 type  2   force =    -0.00000001   -0.00000006    0.00000002
     atom  157 type  2   force =    -0.00000000   -0.00000005    0.00000006
     atom  158 type  2   force =     0.00000002   -0.00000005    0.00000006
     atom  159 type  2   force =    -0.00000000   -0.00000005    0.00000003
     atom  160 type  2   force =    -0.00000001   -0.00000004    0.00000005
     atom  161 type  2   force =     0.00000001    0.00000000    0.00000001
     atom  162 type  2   force =     0.00000005    0.00000001    0.00000001
     atom  163 type  2   force =     0.00000003    0.00000002   -0.00000004
     atom  164 type  2   force =     0.00000002    0.00000001   -0.00000004
     atom  165 type  2   force =     0.00000002   -0.00000002   -0.00000006
     atom  166 type  2   force =     0.00000004    0.00000001   -0.00000007
     atom  167 type  2   force =     0.00000004   -0.00000002   -0.00000006
     atom  168 type  2   force =    -0.00000001    0.00000001   -0.00000006
     atom  169 type  2   force =    -0.00000002   -0.00000003   -0.00000003
     atom  170 type  2   force =     0.00000005    0.00000001   -0.00000004
     atom  171 type  2   force =     0.00000004   -0.00000004    0.00000002
     atom  172 type  2   force =    -0.00000003    0.00000000    0.00000002
     atom  173 type  2   force =    -0.00000002   -0.00000003    0.00000008
     atom  174 type  2   force =     0.00000006    0.00000003    0.00000011
     atom  175 type  2   force =     0.00000003    0.00000002    0.00000008
     atom  176 type  2   force =     0.00000002    0.00000001    0.00000008
     atom  177 type  2   force =     0.00000002   -0.00000001    0.00000001
     atom  178 type  2   force =     0.00000003    0.00000002    0.00000000
     atom  179 type  2   force =     0.00000004    0.00000000   -0.00000002
     atom  180 type  2   force =     0.00000002    0.00000002   -0.00000001
     atom  181 type  2   force =     0.00000001    0.00000003   -0.00000006
     atom  182 type  2   force =     0.00000003    0.00000004   -0.00000004
     atom  183 type  2   force =     0.00000005    0.00000004   -0.00000008
     atom  184 type  2   force =    -0.00000000    0.00000005   -0.00000006
     atom  185 type  2   force =    -0.00000003    0.00000003   -0.00000004
     atom  186 type  2   force =     0.00000006    0.00000006   -0.00000002
     atom  187 type  2   force =     0.00000007    0.00000006    0.00000004
     atom  188 type  2   force =     0.00000001    0.00000006    0.00000003
     atom  189 type  2   force =     0.00000001    0.00000004    0.00000009
     atom  190 type  2   force =     0.00000006    0.00000005    0.00000006
     atom  191 type  2   force =     0.00000005    0.00000001    0.00000006
     atom  192 type  2   force =     0.00000003    0.00000002    0.00000004
     atom  193 type  2   force =     0.00000003    0.00000002   -0.00000000
     atom  194 type  2   force =     0.00000006   -0.00000003    0.00000001
     atom  195 type  2   force =     0.00000005    0.00000002   -0.00000004
     atom  196 type  2   force =     0.00000002   -0.00000003   -0.00000002
     atom  197 type  2   force =    -0.00000002    0.00000000   -0.00000002
     atom  198 type  2   force =     0.00000003   -0.00000001   -0.00000006
     atom  199 type  2   force =    -0.00000000    0.00000002   -0.00000002
     atom  200 type  2   force =    -0.00000001   -0.00000002   -0.00000002
     atom  201 type  2   force =     0.00000002    0.00000002    0.00000001
     atom  202 type  2   force =    -0.00000000   -0.00000002    0.00000002
     atom  203 type  2   force =     0.00000000    0.00000001    0.00000003
     atom  204 type  2   force =     0.00000002   -0.00000004    0.00000003
     atom  205 type  2   force =     0.00000002    0.00000002    0.00000001
     atom  206 type  2   force =     0.00000000   -0.00000005    0.00000003
     atom  207 type  2   force =     0.00000004    0.00000001    0.00000004
     atom  208 type  2   force =     0.00000001   -0.00000003    0.00000002
     atom  209 type  2   force =     0.00000002   -0.00000005   -0.00000000
     atom  210 type  2   force =     0.00000005   -0.00000000    0.00000001
     atom  211 type  2   force =     0.00000007   -0.00000004   -0.00000003
     atom  212 type  2   force =     0.00000002    0.00000001   -0.00000002
     atom  213 type  2   force =     0.00000001   -0.00000004   -0.00000002
     atom  214 type  2   force =     0.00000004   -0.00000001   -0.00000003
     atom  215 type  2   force =     0.00000000   -0.00000002   -0.00000001
     atom  216 type  2   force =     0.00000003   -0.00000003   -0.00000002
     atom  217 type  2   force =     0.00000002   -0.00000004   -0.00000001
     atom  218 type  2   force =     0.00000002   -0.00000002   -0.00000000
     atom  219 type  2   force =     0.00000000   -0.00000003    0.00000000
     atom  220 type  2   force =     0.00000005   -0.00000005    0.00000000
     atom  221 type  2   force =     0.00000001   -0.00000006    0.00000002
     atom  222 type  2   force =     0.00000003    0.00000000    0.00000003
     atom  223 type  2   force =     0.00000003   -0.00000005    0.00000004
     atom  224 type  2   force =     0.00000002   -0.00000000    0.00000003
     atom  225 type  2   force =     0.00000002    0.00000005    0.00000001
     atom  226 type  2   force =     0.00000000    0.00000001   -0.00000000
     atom  227 type  2   force =     0.00000001    0.00000004   -0.00000004
     atom  228 type  2   force =     0.00000002    0.00000001   -0.00000005
     atom  229 type  2   force =     0.00000002    0.00000002   -0.00000005
     atom  230 type  2   force =     0.00000001    0.00000001   -0.00000006
     atom  231 type  2   force =     0.00000002   -0.00000001   -0.00000002
     atom  232 type  2   force =     0.00000004    0.00000001   -0.00000005
     atom  233 type  2   force =     0.00000007   -0.00000002   -0.00000003
     atom  234 type  2   force =     0.00000003    0.00000001   -0.00000000
     atom  235 type  2   force =     0.00000005   -0.00000000    0.00000002
     atom  236 type  2   force =     0.00000009    0.00000003    0.00000003
     atom  237 type  2   force =     0.00000006    0.00000001    0.00000007
     atom  238 type  2   force =     0.00000003    0.00000002    0.00000006
     atom  239 type  2   force =     0.00000003    0.00000004    0.00000004
     atom  240 type  2   force =     0.00000005    0.00000003    0.00000007
     atom  241 type  2   force =     0.00000002   -0.00000003    0.00000000
     atom  242 type  2   force =     0.00000004    0.00000003   -0.00000000
     atom  243 type  2   force =    -0.00000000   -0.00000001   -0.00000004
     atom  244 type  2   force =     0.00000002    0.00000001   -0.00000001
     atom  245 type  2   force =     0.00000001    0.00000002   -0.00000006
     atom  246 type  2   force =    -0.00000001    0.00000002   -0.00000006
     atom  247 type  2   force =     0.00000000    0.00000000   -0.00000002
     atom  248 type  2   force =     0.00000000    0.00000003   -0.00000004
     atom  249 type  2   force =     0.00000007    0.00000004   -0.00000001
     atom  250 type  2   force =     0.00000001    0.00000002    0.00000003
     atom  251 type  2   force =     0.00000002    0.00000002    0.00000003
     atom  252 type  2   force =     0.00000005    0.00000005    0.00000004
     atom  253 type  2   force =     0.00000006    0.00000004    0.00000007
     atom  254 type  2   force =     0.00000000    0.00000003    0.00000003
     atom  255 type  2   force =     0.00000001   -0.00000001    0.00000003
     atom  256 type  2   force =     0.00000003    0.00000001    0.00000001

     Total force =     0.003575     Total SCF correction =     0.000001


     Computing stress (Cartesian axis) and pressure

          total   stress  (Ry/bohr**3)                   (kbar)     P=   -8.12
  -0.00005523   0.00000002  -0.00000011         -8.12      0.00     -0.02
   0.00000002  -0.00005510   0.00000002          0.00     -8.10      0.00
  -0.00000011   0.00000002  -0.00005523         -0.02      0.00     -8.12

     kinetic stress (kbar)   1429.92     -0.00      0.00
                               -0.00   1429.93     -0.00
                                0.00     -0.00   1429.92

     local   stress (kbar)    619.39     -1.28     -0.81
                               -1.28    616.65     -1.28
                               -0.81     -1.28    619.39

     nonloc. stress (kbar)   1036.59     -0.01     -0.00
                               -0.01   1036.57     -0.01
                               -0.00     -0.01   1036.59

     hartree stress (kbar)      4.36      0.61      0.37
                                0.61      5.63      0.61
                                0.37      0.61      4.36

     exc-cor stress (kbar)    501.00     -0.00     -0.00
                               -0.00    501.00     -0.00
                               -0.00     -0.00    501.00

     corecor stress (kbar)  -1269.13      0.00      0.00
                                0.00  -1269.12      0.00
                                0.00      0.00  -1269.13

     ewald   stress (kbar)  -2330.24      0.68      0.43
                                0.68  -2328.76      0.68
                                0.43      0.68  -2330.24

     hubbard stress (kbar)      0.00      0.00      0.00
                                0.00      0.00      0.00
                                0.00      0.00      0.00

     london  stress (kbar)      0.00      0.00      0.00
                                0.00      0.00      0.00
                                0.00      0.00      0.00

     DFT-D3  stress (kbar)      0.00      0.00      0.00
                                0.00      0.00      0.00
                                0.00      0.00      0.00

     XDM     stress (kbar)      0.00      0.00      0.00
                                0.00      0.00      0.00
                                0.00      0.00      0.00

     dft-nl  stress (kbar)      0.00      0.00      0.00
                                0.00      0.00      0.00
                                0.00      0.00      0.00

     TS-vdW  stress (kbar)      0.00      0.00      0.00
                                0.00      0.00      0.00
                                0.00      0.00      0.00



     Writing output data file aiida.save/
 
     init_run     :    201.51s CPU    203.70s WALL (       1 calls)
     electrons    :   8778.27s CPU   8845.44s WALL (       1 calls)
     forces       :     96.96s CPU     97.88s WALL (       1 calls)
     stress       :   1157.28s CPU   1158.94s WALL (       1 calls)

     Called by init_run:
     wfcinit      :    186.49s CPU    188.36s WALL (       1 calls)
     wfcinit:atom :      0.31s CPU      0.59s WALL (       2 calls)
     wfcinit:wfcr :    183.97s CPU    184.77s WALL (       2 calls)
     potinit      :      2.21s CPU      2.37s WALL (       1 calls)
     hinit0       :      2.77s CPU      2.83s WALL (       1 calls)

     Called by electrons:
     c_bands      :   7601.86s CPU   7657.45s WALL (      31 calls)
     sum_band     :   1079.13s CPU   1083.57s WALL (      31 calls)
     v_of_rho     :     45.48s CPU     48.18s WALL (      31 calls)
     v_h          :      4.46s CPU      4.46s WALL (      31 calls)
     v_xc         :     42.91s CPU     45.71s WALL (      33 calls)
     newd         :      9.43s CPU     11.12s WALL (      31 calls)
     PAW_pot      :      6.50s CPU      6.68s WALL (      31 calls)
     mix_rho      :     28.10s CPU     30.49s WALL (      31 calls)

     Called by c_bands:
     init_us_2    :     98.28s CPU     98.85s WALL (     130 calls)
     cegterg      :   6572.65s CPU   6625.87s WALL (      63 calls)

     Called by sum_band:
     sum_band:bec :      1.84s CPU      1.84s WALL (      62 calls)
     addusdens    :      7.19s CPU      9.63s WALL (      31 calls)

     Called by *egterg:
     h_psi        :   4288.73s CPU   4306.75s WALL (     284 calls)
     s_psi        :   1353.99s CPU   1356.68s WALL (     284 calls)
     g_psi        :      5.35s CPU      5.35s WALL (     219 calls)
     cdiaghg      :    306.11s CPU    311.77s WALL (     280 calls)
     cegterg:over :    329.34s CPU    331.01s WALL (     219 calls)
     cegterg:upda :    219.77s CPU    229.95s WALL (     219 calls)
     cegterg:last :    129.76s CPU    129.82s WALL (      65 calls)
     cdiaghg:chol :     14.11s CPU     14.21s WALL (     280 calls)
     cdiaghg:inve :      6.66s CPU      6.66s WALL (     280 calls)
     cdiaghg:para :     71.20s CPU     72.39s WALL (     560 calls)

     Called by h_psi:
     h_psi:pot    :   4282.88s CPU   4292.40s WALL (     284 calls)
     h_psi:calbec :   1342.85s CPU   1343.02s WALL (     284 calls)
     vloc_psi     :   1565.64s CPU   1572.00s WALL (     284 calls)
     add_vuspsi   :   1374.39s CPU   1377.38s WALL (     284 calls)

     General routines
     calbec       :   1974.98s CPU   1975.22s WALL (     356 calls)
     fft          :     49.55s CPU     52.56s WALL (     428 calls)
     ffts         :     13.50s CPU     13.61s WALL (     473 calls)
     fftw         :   1644.55s CPU   1650.67s WALL (  166786 calls)
     interpolate  :      4.88s CPU      5.07s WALL (      31 calls)
 
     Parallel routines
     fft_scatt_xy :    552.74s CPU    554.65s WALL (  167687 calls)
     fft_scatt_yz :    331.30s CPU    334.38s WALL (  167687 calls)

     PAW routines
     PAW_pot      :      6.50s CPU      6.68s WALL (      31 calls)
 
     PWSCF        :      2h53m CPU      2h55m WALL

 
   This run was terminated on:   4:21:41  27Feb2020            

=------------------------------------------------------------------------------=
   JOB DONE.
=------------------------------------------------------------------------------=
