begin
comment 256 atoms, species Al254Mg2
lattice     30.6664728719     0.0000000000     0.0000000000
lattice      0.0000000000    30.6664728719     0.0000000000
lattice      0.0000000000     0.0000000000    30.6664728719
atom     30.6575581282    30.6496339117    30.6575581282   Mg  0.0 0.0    6.41449952e-05  1.59384988e-04  6.41599952e-05
atom      3.8791800191    30.6613761041     3.8791800191   Al  0.0 0.0   -4.85449964e-05 -2.14199984e-05 -4.85449964e-05
atom      3.8891987558     3.8332968424    30.6105801585   Al  0.0 0.0   -7.14999946e-05 -2.59999980e-07  7.11749947e-05
atom     30.6105801585     3.8332968424     3.8891987558   Al  0.0 0.0    7.11799947e-05 -2.49999981e-07 -7.14899946e-05
atom     30.6590546521    30.6473216596     7.6809087943   Al  0.0 0.0    2.11599984e-05  6.34699952e-05  7.15449946e-05
atom      3.8396478689     3.7939640243     7.7309104784   Al  0.0 0.0    1.03349992e-05 -8.74999934e-06 -8.77199934e-05
atom      3.8334655080    30.6524674937    11.5195109365   Al  0.0 0.0    1.46499989e-06  6.25549953e-05 -4.71399965e-05
atom     30.6586161216     3.8260319550    11.5242182401   Al  0.0 0.0    1.80299986e-05  2.35049982e-05 -7.29399945e-05
atom     30.6662428734    30.6643078189    15.3357633533   Al  0.0 0.0   -4.14599969e-05 -6.99199947e-05  9.97749925e-05
atom      3.8341156372     3.8338212391    15.3388208007   Al  0.0 0.0    1.70849987e-05  2.08149984e-05  8.35499937e-06
atom      3.8336127071    30.6647770160    19.1609182472   Al  0.0 0.0    1.16999991e-06 -4.91049963e-05 -1.11849992e-05
atom     30.6656694103     3.8328031122    19.1609611802   Al  0.0 0.0   -1.71549987e-05 -2.09749984e-05 -8.34499937e-06
atom      0.0000919994    30.6645316842    22.9927185657   Al  0.0 0.0   -3.47749974e-05 -6.65599950e-05 -1.35459990e-04
atom      3.8411719926     3.8405923963    22.9755637408   Al  0.0 0.0   -1.80099986e-05 -2.36699982e-05  7.28299945e-05
atom      3.8795817499    30.6540069507    26.7750109304   Al  0.0 0.0   -2.44849982e-05  3.19999976e-07  5.68999957e-05
atom     30.6601433119     3.8726633936    26.7688745692   Al  0.0 0.0   -1.06049992e-05  9.26999930e-06  8.65949935e-05
atom     30.6205927618     7.6717180524    30.6205927618   Al  0.0 0.0    4.74849964e-05  2.13499984e-05  4.74899964e-05
atom      3.8336740400    11.5532716565    30.6187650401   Al  0.0 0.0    2.04999985e-06 -1.42699989e-05  3.69299972e-05
atom      3.8421042534     7.6834694448     3.8421042534   Mg  0.0 0.0   -5.82749956e-05 -1.60594988e-04 -5.82799956e-05
atom     30.6187650401    11.5532716565     3.8336740400   Al  0.0 0.0    3.69049972e-05 -1.42499989e-05  2.01999985e-06
atom     30.6202063643     7.6790902725     7.7247741171   Al  0.0 0.0    2.44199982e-05 -6.54999951e-07 -5.70899957e-05
atom      3.8334931078    11.5510575372     7.7170768324   Al  0.0 0.0    3.79899971e-05  5.16399961e-05  3.26899975e-05
atom      3.8332232429     7.6685624724    11.5070634152   Al  0.0 0.0    3.47449974e-05  6.65799950e-05  1.35539990e-04
atom     30.6583799897    11.5101085960    11.5209553274   Al  0.0 0.0    1.67999987e-05  6.33549952e-05 -5.68999957e-06
atom     30.6661723405     7.6683171406    15.3388637337   Al  0.0 0.0   -1.19499991e-06  4.90349963e-05  1.11599992e-05
atom      3.8337844393    11.5007921215    15.3389403999   Al  0.0 0.0    2.08449984e-05  2.42899982e-05  9.75999927e-06
atom      3.8335421742     7.6687894043    19.1640186276   Al  0.0 0.0    4.14799969e-05  6.98699947e-05 -9.97399925e-05
atom     30.6656172773    11.5031319734    19.1642056931   Al  0.0 0.0   -2.02899985e-05  1.09579992e-04 -8.60349935e-05
atom     30.6663226062     7.6806235961    22.9802710444   Al  0.0 0.0   -1.57499988e-06 -6.24249953e-05  4.70999965e-05
atom      3.8335973738    11.5029019748    22.9918415046   Al  0.0 0.0    4.01149970e-05  1.09604992e-04 -9.18099931e-05
atom      3.8407303954     7.6857694303    26.8188762532   Al  0.0 0.0   -2.10999984e-05 -6.35099952e-05 -7.13799946e-05
atom     30.6586713212    11.5133929752    26.8145308140   Al  0.0 0.0    1.39799989e-05 -1.47049989e-05  9.71549927e-05
atom     30.6586866544    15.3517712522    30.6586866544   Al  0.0 0.0    1.90299986e-05 -8.90099933e-05  1.90449986e-05
atom      3.8335544408    19.1665455449    30.6662306068   Al  0.0 0.0   -2.61999980e-06 -1.99999985e-08  2.58999981e-06
atom      3.8340696375    15.3387104014     3.8340696375   Al  0.0 0.0    1.89299986e-05  4.10299969e-05  1.89199986e-05
atom     30.6662306068    19.1665455449     3.8335544408   Al  0.0 0.0    2.59999980e-06 -9.99999925e-09 -2.62499980e-06
atom     30.6585701219    15.3521361832     7.6760604250   Al  0.0 0.0    1.54399988e-05 -8.34399937e-05  2.88049978e-05
atom      3.8334563081    19.1700353896     7.6689611365   Al  0.0 0.0    3.80249971e-05 -8.51349936e-05  6.90699948e-05
atom      3.8337415063    15.3473951465    11.5146963003   Al  0.0 0.0    2.08749984e-05 -5.43799959e-05 -3.01999977e-05
atom     30.6662551400    19.1665271451    11.5045088980   Al  0.0 0.0   -4.10249969e-05  9.99499925e-06  1.62269988e-04
atom     30.6663134063    15.3352450899    15.3355302881   Al  0.0 0.0   -3.85199971e-05  6.57899951e-05  9.36149930e-05
atom      3.8337445729    19.1683794000    15.3355732212   Al  0.0 0.0    2.23349983e-05  6.68549950e-05  8.57649936e-05
atom      3.8337445729    15.3348065594    19.1659659486   Al  0.0 0.0    2.05399985e-05  4.56849966e-05 -2.33449982e-05
atom     30.6660374080    19.1647086232    19.1642056931   Al  0.0 0.0   -2.23199983e-05 -6.67099950e-05 -8.56999936e-05
atom     30.6662612732    15.3353922890    22.9957116134   Al  0.0 0.0   -3.99699970e-05  7.07899947e-05 -1.47564989e-04
atom      3.8335299076    19.1665578115    22.9952730829   Al  0.0 0.0    4.10699969e-05 -9.85499926e-06 -1.62209988e-04
atom      3.8341033706    15.3472724806    26.8183365233   Al  0.0 0.0    1.99699985e-05 -6.19949953e-05  3.83649971e-05
atom     30.6663287395    19.1630526337    26.8308208444   Al  0.0 0.0   -3.80349971e-05  8.51249936e-05 -6.90899948e-05
atom     30.6657154100    22.9943806885    30.6657154100   Al  0.0 0.0   -1.89549986e-05 -4.10099969e-05 -1.89349986e-05
atom      3.8810200075    26.7798194334    30.6661140742   Al  0.0 0.0   -3.78599972e-05  1.51349989e-05 -2.21499983e-06
atom      3.8410983931    22.9813167711     3.8410983931   Al  0.0 0.0   -1.90699986e-05  8.90149933e-05 -1.90699986e-05
atom     30.6661140742    26.7798194334     3.8810200075   Al  0.0 0.0   -2.23499983e-06  1.51649989e-05 -3.78899972e-05
atom     30.6656847436    22.9858155427     7.6814485243   Al  0.0 0.0   -2.00449985e-05  6.21599953e-05 -3.84649971e-05
atom      3.8411167930    26.8196981147     7.6852542335   Al  0.0 0.0   -1.41099989e-05  1.48699989e-05 -9.73349927e-05
atom      3.8335268409    22.9976988009    11.5040673008   Al  0.0 0.0    3.98949970e-05 -7.08049947e-05  1.47689989e-04
atom     30.6661876737    26.8301891151    11.5079404763   Al  0.0 0.0   -4.01249970e-05 -1.09619992e-04  9.18399931e-05
atom     30.6660374080    22.9982814639    15.3338160323   Al  0.0 0.0   -2.04799985e-05 -4.56349966e-05  2.33399982e-05
atom      3.8341677702    26.8299591165    15.3355762878   Al  0.0 0.0    2.02499985e-05 -1.09589992e-04  8.61299935e-05
atom      3.8334685746    22.9978460000    19.1642486261   Al  0.0 0.0    3.85399971e-05 -6.57149951e-05 -9.34999930e-05
atom     30.6660006082    26.8322989684    19.1608415810   Al  0.0 0.0   -2.07749984e-05 -2.42449982e-05 -9.75499927e-06
atom     30.6660404746    22.9856959434    22.9850856806   Al  0.0 0.0   -2.08649984e-05  5.41549959e-05  2.99799977e-05
atom      3.8414050578    26.8229855606    22.9788297201   Al  0.0 0.0   -1.66249988e-05 -6.34149952e-05  5.47499959e-06
atom      3.8412149257    22.9809518401    26.8237246226   Al  0.0 0.0   -1.52549989e-05  8.33799937e-05 -2.88249978e-05
atom     30.6662980730    26.7820212861    26.7826990152   Al  0.0 0.0   -3.81849971e-05 -5.17899961e-05 -3.28649975e-05
atom      7.6809087943    30.6473216596    30.6590546521   Al  0.0 0.0    7.15599946e-05  6.34749952e-05  2.11699984e-05
atom     11.5242182401     3.8260319550    30.6586161216   Al  0.0 0.0   -7.29349945e-05  2.35199982e-05  1.80349986e-05
atom     11.5195109365    30.6524674937     3.8334655080   Al  0.0 0.0   -4.71449965e-05  6.25449953e-05  1.44999989e-06
atom      7.7309104784     3.7939640243     3.8396478689   Al  0.0 0.0   -8.76899934e-05 -8.73499934e-06  1.03399992e-05
atom      7.6880663491    30.6482171206     7.6880663491   Al  0.0 0.0   -9.73249927e-05  9.64399928e-05 -9.73149927e-05
atom     11.5205934630     3.8255382248     7.6764590891   Al  0.0 0.0   -2.14999984e-07  5.59249958e-05  4.73499964e-05
atom     11.5036901032    30.6650836807    11.5036901032   Al  0.0 0.0    1.54674988e-04 -7.30549945e-05  1.54674988e-04
atom      7.6764590891     3.8255382248    11.5205934630   Al  0.0 0.0    4.73649964e-05  5.59249958e-05 -2.14999984e-07
atom      7.6685471391    30.6642986190    15.3355916211   Al  0.0 0.0    9.00699932e-05 -7.18449946e-05  9.81749926e-05
atom     11.5025891768     3.8335728407    15.3356376208   Al  0.0 0.0    9.19049931e-05 -1.86399986e-05  9.98849925e-05
atom     11.5028069088    30.6658994089    19.1641688933   Al  0.0 0.0    1.17404991e-04 -3.39699974e-05 -8.83849934e-05
atom      7.6695928658     3.8327203127    19.1641320935   Al  0.0 0.0    9.25599930e-05  1.96649985e-05 -9.92999925e-05
atom      7.6807155956    30.6640686204    22.9836566230   Al  0.0 0.0   -2.56849981e-05 -7.31249945e-05 -3.11949977e-05
atom     11.5047542298     3.8333121756    22.9950277511   Al  0.0 0.0    1.84079986e-04 -3.49999974e-08 -1.84039986e-04
atom     11.5071032816    30.6649058151    26.8315077734   Al  0.0 0.0    9.58449928e-05 -8.00999940e-05 -7.78149942e-05
atom      7.6950736382     3.8333121756    26.8047114094   Al  0.0 0.0   -7.03049947e-05 -5.49999959e-08  7.03199947e-05
atom      7.7247741171     7.6790902725    30.6202063643   Al  0.0 0.0   -5.70999957e-05 -6.29999953e-07  2.44499982e-05
atom     11.5209553274    11.5101085960    30.6583799897   Al  0.0 0.0   -5.67499957e-06  6.33649952e-05  1.68149987e-05
atom     11.5070634152     7.6685624724     3.8332232429   Al  0.0 0.0    1.35514990e-04  6.65649950e-05  3.47399974e-05
atom      7.7170768324    11.5510575372     3.8334931078   Al  0.0 0.0    3.26899975e-05  5.16149961e-05  3.79749971e-05
atom      7.7172485647     7.6688292707     7.7172485647   Al  0.0 0.0    3.99699970e-05  7.02999947e-05  3.99449970e-05
atom     11.5188086743    11.5078086105     7.6742296365   Al  0.0 0.0   -6.32249952e-05  2.03499985e-06  1.37499990e-06
atom     11.5139265718     7.6662164872    11.5139265718   Al  0.0 0.0   -3.99449970e-05  1.69499987e-05 -3.99299970e-05
atom      7.6742296365    11.5078086105    11.5188086743   Al  0.0 0.0    1.37999990e-06  2.03999985e-06 -6.32199952e-05
atom      7.6674799459     7.6671548813    15.3388453338   Al  0.0 0.0    3.26699975e-05  3.13699976e-05  9.26999930e-06
atom     11.5023867781    11.5003689242    15.3355364214   Al  0.0 0.0    7.84649941e-05  4.40899967e-05  9.99099925e-05
atom     11.5013563846     7.6664004860    19.1667939434   Al  0.0 0.0    6.51799951e-05  2.03249985e-05 -1.99999985e-05
atom      7.6672468807    11.5005069233    19.1667878101   Al  0.0 0.0    3.86499971e-05  3.78149972e-05 -1.80449986e-05
atom      7.6682772742     7.6681883414    22.9926786993   Al  0.0 0.0    7.77949942e-05  8.00899940e-05 -9.58999928e-05
atom     11.5018133150    11.4999181270    22.9976497345   Al  0.0 0.0    8.62749935e-05  5.47399959e-05 -1.15494991e-04
atom     11.5161253579     7.6690255361    26.8190694520   Al  0.0 0.0    3.12349977e-05  7.30399945e-05  2.56749981e-05
atom      7.6765265554    11.5097191318    26.8147516126   Al  0.0 0.0    5.11949962e-05  7.25949945e-05  5.44799959e-05
atom      7.6760604250    15.3521361832    30.6585701219   Al  0.0 0.0    2.88249978e-05 -8.34199937e-05  1.54649988e-05
atom     11.5045088980    19.1665271451    30.6662551400   Al  0.0 0.0    1.62254988e-04  1.00049992e-05 -4.10149969e-05
atom     11.5146963003    15.3473951465     3.8337415063   Al  0.0 0.0   -3.01849977e-05 -5.43849959e-05  2.08599984e-05
atom      7.6689611365    19.1700353896     3.8334563081   Al  0.0 0.0    6.90899948e-05 -8.51449936e-05  3.80199971e-05
atom      7.6749870984    15.3520441838     7.6749870984   Al  0.0 0.0    1.81249986e-05 -7.86899941e-05  1.81449986e-05
atom     11.5018255816    19.1692043281     7.6666182180   Al  0.0 0.0    8.85899933e-05  8.30349938e-05  5.78649957e-05
atom     11.5016753159    15.3346624269    11.5016753159   Al  0.0 0.0    8.32549937e-05  7.86949941e-05  8.32499937e-05
atom      7.6666182180    19.1692043281    11.5018255816   Al  0.0 0.0    5.78749957e-05  8.30349938e-05  8.85949933e-05
atom      7.6676700780    15.3354168222    15.3356744205   Al  0.0 0.0    6.12649954e-05  7.29499945e-05  1.00619992e-04
atom     11.5000499929    19.1659874151    15.3330524371   Al  0.0 0.0    2.39499982e-05  1.29799990e-05  1.85799986e-05
atom     11.5009362539    15.3339080317    19.1661530141   Al  0.0 0.0    4.14299969e-05  3.59349973e-05 -4.86999963e-06
atom      7.6667439505    19.1673704731    19.1668215432   Al  0.0 0.0    4.04549970e-05  4.73999964e-06 -1.53699988e-05
atom      7.6674952791    15.3353401560    22.9968677395   Al  0.0 0.0    7.44249944e-05  7.02649947e-05 -1.31594990e-04
atom     11.4993875970    19.1665424783    23.0003943839   Al  0.0 0.0    3.55799973e-05  3.99999970e-08 -3.56249973e-05
atom     11.5020249137    15.3348249592    26.8310569762   Al  0.0 0.0    9.78999926e-05  7.67349942e-05 -9.87299926e-05
atom      7.6688906036    19.1665424783    26.8308944439   Al  0.0 0.0    1.11894992e-04  2.49999981e-08 -1.11984992e-04
atom      7.6814485243    22.9858155427    30.6656847436   Al  0.0 0.0   -3.84749971e-05  6.21699953e-05 -2.00349985e-05
atom     11.5079404763    26.8301891151    30.6661876737   Al  0.0 0.0    9.18649931e-05 -1.09614992e-04 -4.01199970e-05
atom     11.5040673008    22.9976988009     3.8335268409   Al  0.0 0.0    1.47669989e-04 -7.08099947e-05  3.98949970e-05
atom      7.6852542335    26.8196981147     3.8411167930   Al  0.0 0.0   -9.73399927e-05  1.48549989e-05 -1.41249989e-05
atom      7.6688507372    22.9984225296     7.6688507372   Al  0.0 0.0    9.75399927e-05 -7.58949943e-05  9.75249927e-05
atom     11.5044015654    26.8305601794     7.6688354040   Al  0.0 0.0    1.62889988e-04 -1.33929990e-04  1.06779992e-04
atom     11.5002247918    23.0001797185    11.5002247918   Al  0.0 0.0    5.20049961e-05 -1.97599985e-05  5.20249961e-05
atom      7.6688354040    26.8305601794    11.5044015654   Al  0.0 0.0    1.06784992e-04 -1.33929990e-04  1.62884988e-04
atom      7.6676240783    22.9992842575    15.3338190989   Al  0.0 0.0    5.47999959e-05 -3.29899975e-05  2.12999984e-05
atom     11.5002186585    26.8329981640    15.3329297712   Al  0.0 0.0    4.13199969e-05 -4.03049970e-05  1.74149987e-05
atom     11.5006203893    23.0000202529    19.1667172772   Al  0.0 0.0    4.15349969e-05 -2.03549985e-05 -1.91099986e-05
atom      7.6693751339    26.8323112350    19.1639756945   Al  0.0 0.0    9.47799929e-05 -6.17949954e-05 -9.75249927e-05
atom      7.6687280713    22.9982630640    22.9977570672   Al  0.0 0.0    9.86349926e-05 -7.66899942e-05 -9.79749926e-05
atom     11.5021353130    26.8331760295    22.9979717325   Al  0.0 0.0    1.15424991e-04 -5.47349959e-05 -8.63299935e-05
atom     11.5029142414    22.9977478672    26.8322897684   Al  0.0 0.0    1.31614990e-04 -7.02149947e-05 -7.44599944e-05
atom      7.6850334349    26.8233719581    26.8232554255   Al  0.0 0.0   -5.45699959e-05 -7.25899945e-05 -5.11949962e-05
atom     15.3357633533    30.6643078189    30.6662428734   Al  0.0 0.0    9.97749925e-05 -6.99399947e-05 -4.14399969e-05
atom     19.1609611802     3.8328031122    30.6656694103   Al  0.0 0.0   -8.31999937e-06 -2.09699984e-05 -1.71399987e-05
atom     19.1609182472    30.6647770160     3.8336127071   Al  0.0 0.0   -1.11849992e-05 -4.90849963e-05  1.15999991e-06
atom     15.3388208007     3.8338212391     3.8341156372   Al  0.0 0.0    8.35499937e-06  2.08199984e-05  1.70699987e-05
atom     15.3355916211    30.6642986190     7.6685471391   Al  0.0 0.0    9.81449926e-05 -7.18449946e-05  9.00849932e-05
atom     19.1641320935     3.8327203127     7.6695928658   Al  0.0 0.0   -9.92749925e-05  1.96649985e-05  9.25499930e-05
atom     19.1641688933    30.6658994089    11.5028069088   Al  0.0 0.0   -8.83899934e-05 -3.39849974e-05  1.17434991e-04
atom     15.3356376208     3.8335728407    11.5025891768   Al  0.0 0.0    9.98699925e-05 -1.86449986e-05  9.18899931e-05
atom     15.3330217706     0.0002637317    15.3330217706   Al  0.0 0.0    2.02449985e-05 -1.65399988e-05  2.02599985e-05
atom     19.1659598153     3.8333121756    15.3338190989   Al  0.0 0.0   -2.71599980e-05 -1.49999989e-08  2.73549979e-05
atom     19.1640646273    30.6655682110    19.1640646273   Al  0.0 0.0   -9.34399930e-05 -2.12249984e-05 -9.34449930e-05
atom     15.3338190989     3.8333121756    19.1659598153   Al  0.0 0.0    2.73199979e-05 -1.49999989e-08 -2.71999980e-05
atom     15.3329880375     0.0002207986    22.9984255963   Al  0.0 0.0    2.00699985e-05 -2.02799985e-05 -6.51299951e-05
atom     19.1641412935     3.8330484440    22.9971958707   Al  0.0 0.0   -9.96699925e-05  1.85049986e-05 -9.19699931e-05
atom     19.1609366471    30.6659392753    26.8323051017   Al  0.0 0.0   -9.25499930e-06 -3.13299976e-05 -3.26999975e-05
atom     15.3356498874     3.8339040386    26.8301921817   Al  0.0 0.0    9.93199925e-05 -1.97799985e-05 -9.25599930e-05
atom     15.3388637337     7.6683171406    30.6661723405   Al  0.0 0.0    1.11449992e-05  4.90249963e-05 -1.18499991e-06
atom     19.1642056931    11.5031319734    30.6656172773   Al  0.0 0.0   -8.60049935e-05  1.09589992e-04 -2.02899985e-05
atom     19.1640186276     7.6687894043     3.8335421742   Al  0.0 0.0   -9.97399925e-05  6.98849947e-05  4.14699969e-05
atom     15.3389403999    11.5007921215     3.8337844393   Al  0.0 0.0    9.74999927e-06  2.42899982e-05  2.08349984e-05
atom     15.3388453338     7.6671548813     7.6674799459   Al  0.0 0.0    9.25999930e-06  3.13649976e-05  3.26549975e-05
atom     19.1667878101    11.5005069233     7.6672468807   Al  0.0 0.0   -1.80149986e-05  3.78049972e-05  3.86199971e-05
atom     19.1667939434     7.6664004860    11.5013563846   Al  0.0 0.0   -1.99899985e-05  2.03199985e-05  6.51699951e-05
atom     15.3355364214    11.5003689242    11.5023867781   Al  0.0 0.0    9.99049925e-05  4.41049967e-05  7.84899941e-05
atom     15.3357142870     7.6675228789    15.3357142870   Al  0.0 0.0    9.35999930e-05  2.13549984e-05  9.36299930e-05
atom     19.1662296803    11.5008043881    15.3338344322   Al  0.0 0.0   -5.42999959e-06  2.98749978e-05  2.38599982e-05
atom     19.1667602103     7.6663575530    19.1667602103   Al  0.0 0.0   -2.01699985e-05  1.64499988e-05 -2.01699985e-05
atom     15.3338344322    11.5008043881    19.1662296803   Al  0.0 0.0    2.38699982e-05  2.98299978e-05 -5.42499959e-06
atom     15.3356100210     7.6671947477    22.9969750721   Al  0.0 0.0    8.84549934e-05  3.39299974e-05 -1.17509991e-04
atom     19.1668491430    11.5000959926    22.9995633224   Al  0.0 0.0   -1.73349987e-05  4.01949970e-05 -4.13649969e-05
atom     19.1641872932     7.6687955376    26.8312379084   Al  0.0 0.0   -9.79849926e-05  7.17899946e-05 -9.01999932e-05
atom     15.3358062864    11.5007798549    26.8304099137   Al  0.0 0.0    9.75799927e-05  6.17499954e-05 -9.48299929e-05
atom     15.3355302881    15.3352450899    30.6663134063   Al  0.0 0.0    9.35999930e-05  6.57799951e-05 -3.84999971e-05
atom     19.1642056931    19.1647086232    30.6660374080   Al  0.0 0.0   -8.56749936e-05 -6.67099950e-05 -2.23099983e-05
atom     19.1659659486    15.3348065594     3.8337445729   Al  0.0 0.0   -2.33199982e-05  4.56699966e-05  2.05299985e-05
atom     15.3355732212    19.1683794000     3.8337445729   Al  0.0 0.0    8.57399936e-05  6.68449950e-05  2.23249983e-05
atom     15.3356744205    15.3354168222     7.6676700780   Al  0.0 0.0    1.00589992e-04  7.29699945e-05  6.12599954e-05
atom     19.1668215432    19.1673704731     7.6667439505   Al  0.0 0.0   -1.53699988e-05  4.74499964e-06  4.04699970e-05
atom     19.1661530141    15.3339080317    11.5009362539   Al  0.0 0.0   -4.85999963e-06  3.58999973e-05  4.14449969e-05
atom     15.3330524371    19.1659874151    11.5000499929   Al  0.0 0.0    1.85599986e-05  1.29649990e-05  2.39399982e-05
atom     15.3329389712    15.3329451045    15.3329389712   Al  0.0 0.0    1.65149988e-05  1.79749986e-05  1.65049988e-05
atom     19.1661714140    19.1665455449    15.3336105669   Al  0.0 0.0   -7.13999946e-06  9.99999925e-09  7.17499946e-06
atom     19.1662327469    15.3340368309    19.1662327469   Al  0.0 0.0   -4.84499964e-06  2.08699984e-05 -4.87499963e-06
atom     15.3336105669    19.1665455449    19.1661714140   Al  0.0 0.0    7.14999946e-06  1.99999985e-08 -7.15999946e-06
atom     15.3330647037    15.3330708370    22.9991646583   Al  0.0 0.0    1.91049986e-05  2.04349985e-05 -4.15449969e-05
atom     19.1667264771    19.1671036748    22.9997350547   Al  0.0 0.0   -1.84799986e-05 -1.29149990e-05 -2.39649982e-05
atom     19.1659628820    15.3338068324    26.8321609693   Al  0.0 0.0   -2.12299984e-05  3.30099975e-05 -5.48449959e-05
atom     15.3329604377    19.1657175502    26.8330410970   Al  0.0 0.0    1.53949988e-05 -4.65999965e-06 -4.05049970e-05
atom     15.3338160323    22.9982814639    30.6660374080   Al  0.0 0.0    2.32999982e-05 -4.56249966e-05 -2.04699985e-05
atom     19.1608415810    26.8322989684    30.6660006082   Al  0.0 0.0   -9.74999927e-06 -2.42399982e-05 -2.07799984e-05
atom     19.1642486261    22.9978460000     3.8334685746   Al  0.0 0.0   -9.34849930e-05 -6.57049951e-05  3.85299971e-05
atom     15.3355762878    26.8299591165     3.8341677702   Al  0.0 0.0    8.61099935e-05 -1.09574992e-04  2.02349985e-05
atom     15.3338190989    22.9992842575     7.6676240783   Al  0.0 0.0    2.12999984e-05 -3.29849975e-05  5.47999959e-05
atom     19.1639756945    26.8323112350     7.6693751339   Al  0.0 0.0   -9.75149927e-05 -6.17949954e-05  9.47699929e-05
atom     19.1667172772    23.0000202529    11.5006203893   Al  0.0 0.0   -1.91049986e-05 -2.03649985e-05  4.15249969e-05
atom     15.3329297712    26.8329981640    11.5002186585   Al  0.0 0.0    1.74099987e-05 -4.02899970e-05  4.13249969e-05
atom     15.3335492340    22.9990542590    15.3335492340   Al  0.0 0.0    4.88499963e-06 -2.08599984e-05  4.91999963e-06
atom     19.1659475487    26.8322897684    15.3335492340   Al  0.0 0.0   -2.38949982e-05 -2.98549978e-05  5.43499959e-06
atom     19.1668430097    23.0001459854    19.1668430097   Al  0.0 0.0   -1.65149988e-05 -1.79999986e-05 -1.65049988e-05
atom     15.3335492340    26.8322897684    19.1659475487   Al  0.0 0.0    5.43499959e-06 -2.98899978e-05 -2.38849982e-05
atom     15.3336289668    22.9991830582    22.9988487936   Al  0.0 0.0    4.83999964e-06 -3.58999973e-05 -4.14549969e-05
atom     19.1642424928    26.8327221657    22.9973952028   Al  0.0 0.0   -9.97649925e-05 -4.40249967e-05 -7.84399941e-05
atom     19.1641044937    22.9976742677    26.8321149695   Al  0.0 0.0   -1.00424992e-04 -7.29449945e-05 -6.12649954e-05
atom     15.3329941708    26.8325841666    26.8325381669   Al  0.0 0.0    1.80099986e-05 -3.77549972e-05 -3.86149971e-05
atom     22.9927185657    30.6645316842     0.0000919994   Al  0.0 0.0   -1.35454990e-04 -6.65599950e-05 -3.47849974e-05
atom     26.7688745692     3.8726633936    30.6601433119   Al  0.0 0.0    8.65749935e-05  9.27999930e-06 -1.05999992e-05
atom     26.7750109304    30.6540069507     3.8795817499   Al  0.0 0.0    5.69099957e-05  3.04999977e-07 -2.44899982e-05
atom     22.9755637408     3.8405923963     3.8411719926   Al  0.0 0.0    7.28499945e-05 -2.36799982e-05 -1.80299986e-05
atom     22.9836566230    30.6640686204     7.6807155956   Al  0.0 0.0   -3.12049977e-05 -7.31049945e-05 -2.56999981e-05
atom     26.8047114094     3.8333121756     7.6950736382   Al  0.0 0.0    7.03299947e-05 -3.49999974e-08 -7.03149947e-05
atom     26.8315077734    30.6649058151    11.5071032816   Al  0.0 0.0   -7.78049942e-05 -8.00999940e-05  9.58699928e-05
atom     22.9950277511     3.8333121756    11.5047542298   Al  0.0 0.0   -1.84024986e-04 -2.49999981e-08  1.84084986e-04
atom     22.9984255963     0.0002207986    15.3329880375   Al  0.0 0.0   -6.51399951e-05 -2.02749985e-05  2.00899985e-05
atom     26.8301921817     3.8339040386    15.3356498874   Al  0.0 0.0   -9.25499930e-05 -1.97749985e-05  9.93299925e-05
atom     26.8323051017    30.6659392753    19.1609366471   Al  0.0 0.0   -3.27199975e-05 -3.13399976e-05 -9.25499930e-06
atom     22.9971958707     3.8330484440    19.1641412935   Al  0.0 0.0   -9.19899931e-05  1.85149986e-05 -9.96999925e-05
atom     22.9858584757     0.0004017308    22.9858584757   Al  0.0 0.0    3.95549970e-05 -1.68399987e-05  3.95449970e-05
atom     26.8233290251     3.8410861265    22.9791915845   Al  0.0 0.0   -4.74849964e-05 -5.58449958e-05  1.29999990e-07
atom     26.7825211496    30.6642618192    26.7825211496   Al  0.0 0.0   -4.09749969e-05 -7.02949947e-05 -4.09499969e-05
atom     22.9791915845     3.8410861265    26.8233290251   Al  0.0 0.0    1.29999990e-07 -5.58499958e-05 -4.74799964e-05
atom     22.9802710444     7.6806235961    30.6663226062   Al  0.0 0.0    4.70999965e-05 -6.24399953e-05 -1.54999988e-06
atom     26.8145308140    11.5133929752    30.6586713212   Al  0.0 0.0    9.71699927e-05 -1.46949989e-05  1.39999989e-05
atom     26.8188762532     7.6857694303     3.8407303954   Al  0.0 0.0   -7.13999946e-05 -6.35149952e-05 -2.11149984e-05
atom     22.9918415046    11.5029019748     3.8335973738   Al  0.0 0.0   -9.18149931e-05  1.09589992e-04  4.01049970e-05
atom     22.9926786993     7.6681883414     7.6682772742   Al  0.0 0.0   -9.58899928e-05  8.00949940e-05  7.77999942e-05
atom     26.8147516126    11.5097191318     7.6765265554   Al  0.0 0.0    5.44899959e-05  7.25899945e-05  5.12049962e-05
atom     26.8190694520     7.6690255361    11.5161253579   Al  0.0 0.0    2.56649981e-05  7.30549945e-05  3.12149977e-05
atom     22.9976497345    11.4999181270    11.5018133150   Al  0.0 0.0   -1.15484991e-04  5.47399959e-05  8.62799935e-05
atom     22.9969750721     7.6671947477    15.3356100210   Al  0.0 0.0   -1.17484991e-04  3.39099975e-05  8.84749934e-05
atom     26.8304099137    11.5007798549    15.3358062864   Al  0.0 0.0   -9.48299929e-05  6.17449954e-05  9.75999927e-05
atom     26.8312379084     7.6687955376    19.1641872932   Al  0.0 0.0   -9.02049932e-05  7.17999946e-05 -9.79999926e-05
atom     22.9995633224    11.5000959926    19.1668491430   Al  0.0 0.0   -4.13399969e-05  4.02049970e-05 -1.73399987e-05
atom     22.9960918777     7.6680104758    22.9960918777   Al  0.0 0.0   -1.54559988e-04  7.29249945e-05 -1.54559988e-04
atom     26.8309496436    11.5025309105    22.9953773489   Al  0.0 0.0   -1.06814992e-04  1.33829990e-04 -1.62624988e-04
atom     26.8117217651     7.6848770359    26.8117217651   Al  0.0 0.0    9.68699927e-05 -9.63249928e-05  9.68649927e-05
atom     22.9953773489    11.5025309105    26.8309496436   Al  0.0 0.0   -1.62619988e-04  1.33844990e-04 -1.06809992e-04
atom     22.9957116134    15.3353922890    30.6662612732   Al  0.0 0.0   -1.47554989e-04  7.07899947e-05 -3.99749970e-05
atom     26.8308208444    19.1630526337    30.6663287395   Al  0.0 0.0   -6.90999948e-05  8.51199936e-05 -3.80299971e-05
atom     26.8183365233    15.3472724806     3.8341033706   Al  0.0 0.0    3.83799971e-05 -6.20099953e-05  1.99699985e-05
atom     22.9952730829    19.1665578115     3.8335299076   Al  0.0 0.0   -1.62194988e-04 -9.86999926e-06  4.10349969e-05
atom     22.9968677395    15.3353401560     7.6674952791   Al  0.0 0.0   -1.31604990e-04  7.02699947e-05  7.44249944e-05
atom     26.8308944439    19.1665424783     7.6688906036   Al  0.0 0.0   -1.11984992e-04  2.99999977e-08  1.11889992e-04
atom     26.8310569762    15.3348249592    11.5020249137   Al  0.0 0.0   -9.87399926e-05  7.67449942e-05  9.79199926e-05
atom     23.0003943839    19.1665424783    11.4993875970   Al  0.0 0.0   -3.56149973e-05  2.49999981e-08  3.55849973e-05
atom     22.9991646583    15.3330708370    15.3330647037   Al  0.0 0.0   -4.15599969e-05  2.04349985e-05  1.91099986e-05
atom     26.8330410970    19.1657175502    15.3329604377   Al  0.0 0.0   -4.04849970e-05 -4.66499965e-06  1.53999988e-05
atom     26.8321609693    15.3338068324    19.1659628820   Al  0.0 0.0   -5.48549959e-05  3.30149975e-05 -2.12349984e-05
atom     22.9997350547    19.1671036748    19.1667264771   Al  0.0 0.0   -2.39649982e-05 -1.29049990e-05 -1.84899986e-05
atom     22.9995571891    15.3329113713    22.9995571891   Al  0.0 0.0   -5.19399961e-05  1.97999985e-05 -5.19499961e-05
atom     26.8331637629    19.1638836951    22.9979563993   Al  0.0 0.0   -5.79049956e-05 -8.29249938e-05 -8.85499933e-05
atom     26.8309343103    15.3346685602    26.8309343103   Al  0.0 0.0   -9.75549927e-05  7.57599943e-05 -9.75249927e-05
atom     22.9979563993    19.1638836951    26.8331637629   Al  0.0 0.0   -8.85399933e-05 -8.29349938e-05 -5.79049956e-05
atom     22.9850856806    22.9856959434    30.6660404746   Al  0.0 0.0    2.99549977e-05  5.41599959e-05 -2.08449984e-05
atom     26.7826990152    26.7820212861    30.6662980730   Al  0.0 0.0   -3.28599975e-05 -5.17699961e-05 -3.81699971e-05
atom     26.8237246226    22.9809518401     3.8412149257   Al  0.0 0.0   -2.88299978e-05  8.33749937e-05 -1.52599989e-05
atom     22.9788297201    26.8229855606     3.8414050578   Al  0.0 0.0    5.47499959e-06 -6.34149952e-05 -1.66449987e-05
atom     22.9977570672    22.9982630640     7.6687280713   Al  0.0 0.0   -9.79549926e-05 -7.66799942e-05  9.86449926e-05
atom     26.8232554255    26.8233719581     7.6850334349   Al  0.0 0.0   -5.11849962e-05 -7.25949945e-05 -5.45749959e-05