LAMMPS positionsfile from: al5x5x5_alat4.057_125al_0si_0mg_0va_125atoms.POSCAR

125 atoms
1 atom types

0.0 14.34366105636912 xlo xhi
0.0 12.421974858089195 ylo yhi
0.0 11.71155021051156 zlo zhi
7.171830528184559 7.171830528184559 4.140658286029731 xy xz yz

Masses

1 26.9815385

Atoms

    1     1 0.0  0.0  0.0
    2     1 1.434366105636911  0.8281316572059456  2.3423100421023104
    3     1 2.868732211273822  1.6562633144118912  4.684620084204621
    4     1 4.303098316910733  2.484394971617837  7.026930126306931
    5     1 5.737464422547644  3.3125266288237825  9.369240168409242
    6     1 1.4343661056369108  2.4843949716178373  -2.111214149721182e-17
    7     1 2.8687322112738216  3.312526628823783  2.3423100421023104
    8     1 4.303098316910733  4.140658286029729  4.684620084204621
    9     1 5.737464422547643  4.968789943235674  7.02693012630693
   10     1 7.171830528184555  5.79692160044162  9.369240168409242
   11     1 2.8687322112738216  4.968789943235675  -4.222428299442364e-17
   12     1 4.303098316910733  5.796921600441621  2.3423100421023104
   13     1 5.737464422547643  6.625053257647566  4.684620084204621
   14     1 7.171830528184555  7.453184914853512  7.026930126306931
   15     1 8.606196633821465  8.281316572059458  9.369240168409242
   16     1 4.303098316910733  7.453184914853512  -6.333642449163546e-17
   17     1 5.737464422547643  8.281316572059458  2.3423100421023104
   18     1 7.171830528184555  9.109448229265404  4.684620084204622
   19     1 8.606196633821465  9.93757988647135  7.026930126306932
   20     1 10.040562739458377  10.765711543677293  9.36924016840924
   21     1 5.737464422547643  9.93757988647135  -8.444856598884729e-17
   22     1 7.171830528184555  10.765711543677297  2.3423100421023113
   23     1 8.606196633821465  11.593843200883242  4.684620084204621
   24     1 10.040562739458375  12.421974858089188  7.0269301263069295
   25     1 11.474928845095286  13.250106515295132  9.369240168409242
   26     1 2.868732211273822  3.399536717924645e-17  -2.111214149721182e-17
   27     1 4.3030983169107335  0.8281316572059456  2.3423100421023104
   28     1 5.737464422547644  1.656263314411891  4.684620084204621
   29     1 7.171830528184555  2.4843949716178373  7.02693012630693
   30     1 8.606196633821467  3.312526628823782  9.369240168409242
   31     1 4.303098316910733  2.4843949716178373  -4.222428299442364e-17
   32     1 5.737464422547644  3.312526628823783  2.3423100421023104
   33     1 7.171830528184555  4.140658286029729  4.684620084204621
   34     1 8.606196633821465  4.968789943235675  7.026930126306931
   35     1 10.040562739458377  5.79692160044162  9.369240168409243
   36     1 5.737464422547644  4.968789943235675  -6.333642449163546e-17
   37     1 7.171830528184555  5.79692160044162  2.3423100421023104
   38     1 8.606196633821465  6.625053257647566  4.68462008420462
   39     1 10.040562739458377  7.453184914853512  7.026930126306932
   40     1 11.474928845095288  8.281316572059456  9.369240168409242
   41     1 7.171830528184555  7.453184914853512  -8.444856598884729e-17
   42     1 8.606196633821465  8.281316572059458  2.3423100421023104
   43     1 10.040562739458377  9.109448229265404  4.684620084204621
   44     1 11.474928845095288  9.93757988647135  7.026930126306931
   45     1 12.909294950732198  10.765711543677295  9.369240168409242
   46     1 8.606196633821465  9.93757988647135  -6.183507571883425e-16
   47     1 10.040562739458377  10.765711543677297  2.342310042102311
   48     1 11.474928845095288  11.59384320088324  4.684620084204621
   49     1 12.909294950732198  12.421974858089186  7.0269301263069295
   50     1 14.34366105636911  13.250106515295132  9.369240168409242
   51     1 5.737464422547644  6.79907343584929e-17  -4.222428299442364e-17
   52     1 7.171830528184556  0.8281316572059455  2.3423100421023104
   53     1 8.606196633821467  1.6562633144118912  4.684620084204621
   54     1 10.040562739458377  2.4843949716178364  7.026930126306931
   55     1 11.474928845095288  3.312526628823782  9.369240168409242
   56     1 7.171830528184556  2.4843949716178373  -6.333642449163546e-17
   57     1 8.606196633821467  3.312526628823783  2.3423100421023104
   58     1 10.040562739458377  4.140658286029729  4.68462008420462
   59     1 11.474928845095288  4.968789943235674  7.026930126306932
   60     1 12.909294950732198  5.79692160044162  9.369240168409242
   61     1 8.606196633821465  4.968789943235675  -8.444856598884729e-17
   62     1 10.040562739458377  5.79692160044162  2.3423100421023104
   63     1 11.474928845095288  6.625053257647566  4.684620084204621
   64     1 12.9092949507322  7.453184914853511  7.026930126306933
   65     1 14.34366105636911  8.281316572059458  9.369240168409242
   66     1 10.040562739458377  7.453184914853512  -6.183507571883425e-16
   67     1 11.474928845095288  8.281316572059458  2.342310042102309
   68     1 12.9092949507322  9.109448229265404  4.684620084204621
   69     1 14.343661056369111  9.93757988647135  7.026930126306931
   70     1 15.77802716200602  10.765711543677295  9.36924016840924
   71     1 11.474928845095288  9.93757988647135  -1.2667284898327093e-16
   72     1 12.909294950732198  10.765711543677295  2.3423100421023104
   73     1 14.34366105636911  11.59384320088324  4.684620084204621
   74     1 15.77802716200602  12.421974858089186  7.026930126306931
   75     1 17.21239326764293  13.250106515295132  9.36924016840924
   76     1 8.606196633821467  -1.2005850338729196e-16  -6.333642449163546e-17
   77     1 10.040562739458379  0.8281316572059457  2.3423100421023104
   78     1 11.47492884509529  1.6562633144118906  4.684620084204622
   79     1 12.9092949507322  2.484394971617837  7.026930126306932
   80     1 14.343661056369111  3.3125266288237825  9.36924016840924
   81     1 10.040562739458377  2.4843949716178373  -8.444856598884729e-17
   82     1 11.474928845095288  3.312526628823783  2.3423100421023104
   83     1 12.9092949507322  4.140658286029728  4.684620084204621
   84     1 14.343661056369111  4.968789943235674  7.026930126306931
   85     1 15.77802716200602  5.79692160044162  9.369240168409242
   86     1 11.474928845095288  4.968789943235675  -6.183507571883425e-16
   87     1 12.9092949507322  5.796921600441621  2.342310042102309
   88     1 14.343661056369111  6.625053257647566  4.684620084204621
   89     1 15.77802716200602  7.453184914853512  7.026930126306931
   90     1 17.21239326764293  8.281316572059458  9.36924016840924
   91     1 12.909294950732198  7.453184914853512  -1.2667284898327093e-16
   92     1 14.34366105636911  8.281316572059458  2.3423100421023104
   93     1 15.77802716200602  9.109448229265404  4.684620084204623
   94     1 17.21239326764293  9.93757988647135  7.026930126306931
   95     1 18.646759373279842  10.765711543677295  9.36924016840924
   96     1 14.34366105636911  9.93757988647135  -5.231733604783246e-16
   97     1 15.77802716200602  10.765711543677295  2.3423100421023118
   98     1 17.21239326764293  11.59384320088324  4.684620084204622
   99     1 18.646759373279842  12.421974858089186  7.02693012630693
  100     1 20.081125478916753  13.250106515295132  9.369240168409242
  101     1 11.474928845095288  1.359814687169858e-16  -8.444856598884729e-17
  102     1 12.9092949507322  0.8281316572059448  2.3423100421023113
  103     1 14.343661056369111  1.656263314411891  4.684620084204621
  104     1 15.778027162006023  2.484394971617837  7.0269301263069295
  105     1 17.212393267642934  3.3125266288237825  9.369240168409242
  106     1 12.9092949507322  2.4843949716178377  -6.183507571883425e-16
  107     1 14.343661056369111  3.312526628823783  2.342310042102311
  108     1 15.778027162006023  4.140658286029729  4.684620084204621
  109     1 17.212393267642934  4.968789943235675  7.0269301263069295
  110     1 18.646759373279842  5.796921600441621  9.369240168409242
  111     1 14.343661056369111  4.968789943235675  -1.2667284898327093e-16
  112     1 15.77802716200602  5.79692160044162  2.3423100421023104
  113     1 17.212393267642934  6.625053257647566  4.684620084204621
  114     1 18.646759373279842  7.453184914853512  7.026930126306931
  115     1 20.081125478916753  8.281316572059458  9.36924016840924
  116     1 15.77802716200602  7.453184914853512  -5.231733604783246e-16
  117     1 17.21239326764293  8.281316572059456  2.3423100421023118
  118     1 18.646759373279842  9.109448229265404  4.684620084204622
  119     1 20.081125478916753  9.93757988647135  7.02693012630693
  120     1 21.515491584553665  10.765711543677295  9.369240168409242
  121     1 17.21239326764293  9.93757988647135  -1.6889713197769457e-16
  122     1 18.646759373279842  10.765711543677295  2.342310042102312
  123     1 20.081125478916753  11.59384320088324  4.684620084204621
  124     1 21.515491584553665  12.421974858089186  7.0269301263069295
  125     1 22.949857690190576  13.250106515295132  9.369240168409242

