
     Program PWSCF v.6.3 starts on 26Feb2020 at 23: 4:30 

     This program is part of the open-source Quantum ESPRESSO suite
     for quantum simulation of materials; please cite
         "P. Giannozzi et al., J. Phys.:Condens. Matter 21 395502 (2009);
         "P. Giannozzi et al., J. Phys.:Condens. Matter 29 465901 (2017);
          URL http://www.quantum-espresso.org", 
     in publications or presentations arising from this work. More details at
     http://www.quantum-espresso.org/quote

 *** WARNING: using old-style file format, will disappear from next version ***

     Parallel version (MPI & OpenMP), running on     288 processor cores
     Number of MPI processes:               288
     Threads/MPI process:                     1

     MPI processes distributed on     8 nodes
     K-points division:     npool     =      36
     R & G space division:  proc/nbgrp/npool/nimage =       8
     Reading input from aiida.in
Warning: card &IONS ignored
Warning: card   !PRESS_CONV_THR = 0.05                 ! JUST FOR VOLUME RELAXATIONS ignored
Warning: card / ignored

     Current dimensions of program PWSCF are:
     Max number of different atomic species (ntypx) = 10
     Max number of k-points (npk) =  40000
     Max angular momentum in pseudopotentials (lmaxx) =  3
               file Al.pbe-n-kjpaw_psl.1.0.0.UPF: wavefunction(s)  3S 3P renormalized

     Subspace diagonalization in iterative solution of the eigenvalue problem:
     one sub-group per band group will be used
     scalapack distributed-memory algorithm (size of sub-group:  2*  2 procs)

 
     Parallelization info
     --------------------
     sticks:   dense  smooth     PW     G-vecs:    dense   smooth      PW
     Min        3740    1497    390               486920   123201   16474
     Max        3741    1498    391               486925   123204   16481
     Sum       29921   11977   3125              3895379   985619  131827
 


     bravais-lattice index     =            0
     lattice parameter (alat)  =      30.6665  a.u.
     unit-cell volume          =   28839.7502 (a.u.)^3
     number of atoms/cell      =          255
     number of atomic types    =            2
     number of electrons       =       766.00
     number of Kohn-Sham states=          460
     kinetic-energy cutoff     =      40.0000  Ry
     charge density cutoff     =     400.0000  Ry
     convergence threshold     =      1.0E-12
     mixing beta               =       0.4000
     number of iterations used =            8  local-TF  mixing
     Exchange-correlation      = PBE ( 1  4  3  4 0 0)

     celldm(1)=  30.666473  celldm(2)=   0.000000  celldm(3)=   0.000000
     celldm(4)=   0.000000  celldm(5)=   0.000000  celldm(6)=   0.000000

     crystal axes: (cart. coord. in units of alat)
               a(1) = (   1.000000   0.000000   0.000000 )  
               a(2) = (   0.000000   1.000000   0.000000 )  
               a(3) = (   0.000000   0.000000   1.000000 )  

     reciprocal axes: (cart. coord. in units 2 pi/alat)
               b(1) = (  1.000000  0.000000  0.000000 )  
               b(2) = (  0.000000  1.000000  0.000000 )  
               b(3) = (  0.000000  0.000000  1.000000 )  


     PseudoPot. # 1 for Al read from file:
     /users/aglensk/Dropbox/Albert/scripts/dotfiles/scripts/potentials/quantum_espresso/pseudo_SSSPefV1.1_alalloy/Al.pbe-n-kjpaw_psl.1.0.0.UPF
     MD5 check sum: cfc449ca30b5f3223ec38ddd88ac046d
     Pseudo is Projector augmented-wave + core cor, Zval =  3.0
     Generated using "atomic" code by A. Dal Corso v.5.1
     Shape of augmentation charge: PSQ
     Using radial grid of 1135 points,  6 beta functions with: 
                l(1) =   0
                l(2) =   0
                l(3) =   1
                l(4) =   1
                l(5) =   2
                l(6) =   2
     Q(r) pseudized with 0 coefficients 


     PseudoPot. # 2 for Si read from file:
     /users/aglensk/Dropbox/Albert/scripts/dotfiles/scripts/potentials/quantum_espresso/pseudo_SSSPefV1.1_alalloy/Si.pbe-n-rrkjus_psl.1.0.0.UPF
     MD5 check sum: 0b0bb1205258b0d07b9f9672cf965d36
     Pseudo is Ultrasoft + core correction, Zval =  4.0
     Generated using "atomic" code by A. Dal Corso v.5.1
     Using radial grid of 1141 points,  6 beta functions with: 
                l(1) =   0
                l(2) =   0
                l(3) =   1
                l(4) =   1
                l(5) =   2
                l(6) =   2
     Q(r) pseudized with 0 coefficients 


     atomic species   valence    mass     pseudopotential
        Al             3.00    26.98154     Al( 1.00)
        Si             4.00    28.08500     Si( 1.00)

     No symmetry found


                                    s                        frac. trans.

      isym =  1     identity                                     

 cryst.   s( 1) = (     1          0          0      )
                  (     0          1          0      )
                  (     0          0          1      )

 cart.    s( 1) = (  1.0000000  0.0000000  0.0000000 )
                  (  0.0000000  1.0000000  0.0000000 )
                  (  0.0000000  0.0000000  1.0000000 )


   Cartesian axes

     site n.     atom                  positions (alat units)
         1           Al  tau(   1) = (   0.1226760   0.0011226   0.1206736  )
         2           Si  tau(   2) = (   0.1230392   0.1230392   0.0000000  )
         3           Al  tau(   3) = (   0.0011226   0.1226760   0.1206736  )
         4           Al  tau(   4) = (   0.0002179   0.0002179   0.2491346  )
         5           Al  tau(   5) = (   0.1247906   0.1247906   0.2491232  )
         6           Al  tau(   6) = (   0.1249423   0.0000634   0.3748219  )
         7           Al  tau(   7) = (   0.0000634   0.1249423   0.3748219  )
         8           Al  tau(   8) = (   0.0000194   0.0000194   0.5000000  )
         9           Al  tau(   9) = (   0.1250308   0.1250308   0.5000000  )
        10           Al  tau(  10) = (   0.1249423   0.0000634   0.6251781  )
        11           Al  tau(  11) = (   0.0000634   0.1249423   0.6251781  )
        12           Al  tau(  12) = (   0.0002179   0.0002179   0.7508654  )
        13           Al  tau(  13) = (   0.1247906   0.1247906   0.7508768  )
        14           Al  tau(  14) = (   0.1226760   0.0011226   0.8793264  )
        15           Al  tau(  15) = (   0.0011226   0.1226760   0.8793264  )
        16           Al  tau(  16) = (   0.0006942   0.2493205   0.0000000  )
        17           Al  tau(  17) = (   0.1249937   0.3746211   0.0000000  )
        18           Al  tau(  18) = (   0.1248205   0.2492138   0.1243387  )
        19           Al  tau(  19) = (   0.0000579   0.3748214   0.1249281  )
        20           Al  tau(  20) = (   0.0000508   0.2489712   0.2488281  )
        21           Al  tau(  21) = (   0.1249166   0.3746176   0.2497227  )
        22           Al  tau(  22) = (   0.1249157   0.2499318   0.3747753  )
        23           Al  tau(  23) = (   0.0000336   0.3748328   0.3748265  )
        24           Al  tau(  24) = (   0.0000088   0.2500088   0.5000000  )
        25           Al  tau(  25) = (   0.1250096   0.3749640   0.5000000  )
        26           Al  tau(  26) = (   0.1249157   0.2499318   0.6252247  )
        27           Al  tau(  27) = (   0.0000336   0.3748328   0.6251735  )
        28           Al  tau(  28) = (   0.0000508   0.2489712   0.7511719  )
        29           Al  tau(  29) = (   0.1249166   0.3746176   0.7502773  )
        30           Al  tau(  30) = (   0.1248205   0.2492138   0.8756613  )
        31           Al  tau(  31) = (   0.0000579   0.3748214   0.8750719  )
        32           Al  tau(  32) = (   0.0000273   0.4998665   0.0000000  )
        33           Al  tau(  33) = (   0.1249811   0.6249187   0.0000000  )
        34           Al  tau(  34) = (   0.1250458   0.4998405   0.1249984  )
        35           Al  tau(  35) = (   0.0000069   0.6249669   0.1249626  )
        36           Al  tau(  36) = (   0.0000292   0.4999637   0.2499977  )
        37           Al  tau(  37) = (   0.1249176   0.6250811   0.2499627  )
        38           Al  tau(  38) = (   0.1250110   0.4999633   0.3749779  )
        39           Al  tau(  39) = (   0.0000035   0.6251320   0.3748658  )
        40           Al  tau(  40) = (   0.0000035   0.4999988   0.5000000  )
        41           Al  tau(  41) = (   0.1250073   0.6249789   0.5000000  )
        42           Al  tau(  42) = (   0.1250110   0.4999633   0.6250221  )
        43           Al  tau(  43) = (   0.0000035   0.6251320   0.6251342  )
        44           Al  tau(  44) = (   0.0000292   0.4999637   0.7500023  )
        45           Al  tau(  45) = (   0.1249176   0.6250811   0.7500373  )
        46           Al  tau(  46) = (   0.1250458   0.4998405   0.8750016  )
        47           Al  tau(  47) = (   0.0000069   0.6249669   0.8750374  )
        48           Al  tau(  48) = (   0.0000019   0.7502727   0.0000000  )
        49           Al  tau(  49) = (   0.1229427   0.8770524   0.0000000  )
        50           Al  tau(  50) = (   0.1248835   0.7502708   0.1248874  )
        51           Al  tau(  51) = (   0.0002460   0.8774851   0.1227262  )
        52           Al  tau(  52) = (   0.0000184   0.7509227   0.2491016  )
        53           Al  tau(  53) = (   0.1249006   0.8754662   0.2494720  )
        54           Al  tau(  54) = (   0.1249086   0.7500427   0.3748679  )
        55           Al  tau(  55) = (   0.0000157   0.8751003   0.3749712  )
        56           Al  tau(  56) = (   0.0000091   0.7499844   0.5000000  )
        57           Al  tau(  57) = (   0.1250376   0.8750199   0.5000000  )
        58           Al  tau(  58) = (   0.1249086   0.7500427   0.6251321  )
        59           Al  tau(  59) = (   0.0000157   0.8751003   0.6250288  )
        60           Al  tau(  60) = (   0.0000184   0.7509227   0.7508984  )
        61           Al  tau(  61) = (   0.1249006   0.8754662   0.7505280  )
        62           Al  tau(  62) = (   0.1248835   0.7502708   0.8751127  )
        63           Al  tau(  63) = (   0.0002460   0.8774851   0.8772739  )
        64           Al  tau(  64) = (   0.2493205   0.0006942   0.0000000  )
        65           Al  tau(  65) = (   0.3746211   0.1249937   0.0000000  )
        66           Al  tau(  66) = (   0.3748214   0.0000579   0.1249281  )
        67           Al  tau(  67) = (   0.2492138   0.1248205   0.1243387  )
        68           Al  tau(  68) = (   0.2489712   0.0000508   0.2488281  )
        69           Al  tau(  69) = (   0.3746176   0.1249166   0.2497227  )
        70           Al  tau(  70) = (   0.3748328   0.0000336   0.3748265  )
        71           Al  tau(  71) = (   0.2499318   0.1249157   0.3747753  )
        72           Al  tau(  72) = (   0.2500088   0.0000088   0.5000000  )
        73           Al  tau(  73) = (   0.3749640   0.1250096   0.5000000  )
        74           Al  tau(  74) = (   0.3748328   0.0000336   0.6251735  )
        75           Al  tau(  75) = (   0.2499318   0.1249157   0.6252247  )
        76           Al  tau(  76) = (   0.2489712   0.0000508   0.7511719  )
        77           Al  tau(  77) = (   0.3746176   0.1249166   0.7502773  )
        78           Al  tau(  78) = (   0.3748214   0.0000579   0.8750719  )
        79           Al  tau(  79) = (   0.2492138   0.1248205   0.8756613  )
        80           Al  tau(  80) = (   0.2484474   0.2484474   0.0000000  )
        81           Al  tau(  81) = (   0.3745449   0.3745449   0.0000000  )
        82           Al  tau(  82) = (   0.3746682   0.2499547   0.1248816  )
        83           Al  tau(  83) = (   0.2499547   0.3746682   0.1248816  )
        84           Al  tau(  84) = (   0.2500201   0.2500201   0.2498974  )
        85           Al  tau(  85) = (   0.3750701   0.3750701   0.2500513  )
        86           Al  tau(  86) = (   0.3749800   0.2499557   0.3749683  )
        87           Al  tau(  87) = (   0.2499557   0.3749800   0.3749683  )
        88           Al  tau(  88) = (   0.2499810   0.2499810   0.5000000  )
        89           Al  tau(  89) = (   0.3749738   0.3749738   0.5000000  )
        90           Al  tau(  90) = (   0.3749800   0.2499557   0.6250317  )
        91           Al  tau(  91) = (   0.2499557   0.3749800   0.6250317  )
        92           Al  tau(  92) = (   0.2500201   0.2500201   0.7501026  )
        93           Al  tau(  93) = (   0.3750701   0.3750701   0.7499487  )
        94           Al  tau(  94) = (   0.3746682   0.2499547   0.8751184  )
        95           Al  tau(  95) = (   0.2499547   0.3746682   0.8751184  )
        96           Al  tau(  96) = (   0.2500059   0.4998473   0.0000000  )
        97           Al  tau(  97) = (   0.3748282   0.6251320   0.0000000  )
        98           Al  tau(  98) = (   0.3749786   0.4999505   0.1249699  )
        99           Al  tau(  99) = (   0.2499978   0.6250960   0.1248985  )
       100           Al  tau( 100) = (   0.2499551   0.4999599   0.2499370  )
       101           Al  tau( 101) = (   0.3750096   0.6249767   0.2499545  )
       102           Al  tau( 102) = (   0.3749667   0.5000132   0.3749903  )
       103           Al  tau( 103) = (   0.2499746   0.6249779   0.3750272  )
       104           Al  tau( 104) = (   0.2500510   0.4999895   0.5000000  )
       105           Al  tau( 105) = (   0.3749797   0.6250267   0.5000000  )
       106           Al  tau( 106) = (   0.3749667   0.5000132   0.6250097  )
       107           Al  tau( 107) = (   0.2499746   0.6249779   0.6249728  )
       108           Al  tau( 108) = (   0.2499551   0.4999599   0.7500630  )
       109           Al  tau( 109) = (   0.3750096   0.6249767   0.7500456  )
       110           Al  tau( 110) = (   0.3749786   0.4999505   0.8750301  )
       111           Al  tau( 111) = (   0.2499978   0.6250960   0.8751015  )
       112           Al  tau( 112) = (   0.2490842   0.7510208   0.0000000  )
       113           Al  tau( 113) = (   0.3747010   0.8753392   0.0000000  )
       114           Al  tau( 114) = (   0.3748679   0.7500530   0.1248694  )
       115           Al  tau( 115) = (   0.2497464   0.8753536   0.1248892  )
       116           Al  tau( 116) = (   0.2501376   0.7498662   0.2501423  )
       117           Al  tau( 117) = (   0.3749834   0.8750324   0.2500733  )
       118           Al  tau( 118) = (   0.3750174   0.7500107   0.3750363  )
       119           Al  tau( 119) = (   0.2499777   0.8751214   0.3748918  )
       120           Al  tau( 120) = (   0.2499699   0.7500171   0.5000000  )
       121           Al  tau( 121) = (   0.3750118   0.8749973   0.5000000  )
       122           Al  tau( 122) = (   0.3750174   0.7500107   0.6249637  )
       123           Al  tau( 123) = (   0.2499777   0.8751214   0.6251082  )
       124           Al  tau( 124) = (   0.2501376   0.7498662   0.7498578  )
       125           Al  tau( 125) = (   0.3749834   0.8750324   0.7499267  )
       126           Al  tau( 126) = (   0.3748679   0.7500530   0.8751306  )
       127           Al  tau( 127) = (   0.2497464   0.8753536   0.8751108  )
       128           Al  tau( 128) = (   0.4998665   0.0000273   0.0000000  )
       129           Al  tau( 129) = (   0.6249187   0.1249811   0.0000000  )
       130           Al  tau( 130) = (   0.6249669   0.0000069   0.1249626  )
       131           Al  tau( 131) = (   0.4998405   0.1250458   0.1249984  )
       132           Al  tau( 132) = (   0.4999637   0.0000292   0.2499977  )
       133           Al  tau( 133) = (   0.6250811   0.1249176   0.2499627  )
       134           Al  tau( 134) = (   0.6251320   0.0000035   0.3748658  )
       135           Al  tau( 135) = (   0.4999633   0.1250110   0.3749779  )
       136           Al  tau( 136) = (   0.4999988   0.0000035   0.5000000  )
       137           Al  tau( 137) = (   0.6249789   0.1250073   0.5000000  )
       138           Al  tau( 138) = (   0.6251320   0.0000035   0.6251342  )
       139           Al  tau( 139) = (   0.4999633   0.1250110   0.6250221  )
       140           Al  tau( 140) = (   0.4999637   0.0000292   0.7500023  )
       141           Al  tau( 141) = (   0.6250811   0.1249176   0.7500373  )
       142           Al  tau( 142) = (   0.6249669   0.0000069   0.8750374  )
       143           Al  tau( 143) = (   0.4998405   0.1250458   0.8750016  )
       144           Al  tau( 144) = (   0.4998473   0.2500059   0.0000000  )
       145           Al  tau( 145) = (   0.6251320   0.3748282   0.0000000  )
       146           Al  tau( 146) = (   0.6250960   0.2499978   0.1248985  )
       147           Al  tau( 147) = (   0.4999505   0.3749786   0.1249699  )
       148           Al  tau( 148) = (   0.4999599   0.2499551   0.2499370  )
       149           Al  tau( 149) = (   0.6249767   0.3750096   0.2499545  )
       150           Al  tau( 150) = (   0.6249779   0.2499746   0.3750272  )
       151           Al  tau( 151) = (   0.5000132   0.3749667   0.3749903  )
       152           Al  tau( 152) = (   0.4999895   0.2500510   0.5000000  )
       153           Al  tau( 153) = (   0.6250267   0.3749797   0.5000000  )
       154           Al  tau( 154) = (   0.6249779   0.2499746   0.6249728  )
       155           Al  tau( 155) = (   0.5000132   0.3749667   0.6250097  )
       156           Al  tau( 156) = (   0.4999599   0.2499551   0.7500630  )
       157           Al  tau( 157) = (   0.6249767   0.3750096   0.7500456  )
       158           Al  tau( 158) = (   0.6250960   0.2499978   0.8751015  )
       159           Al  tau( 159) = (   0.4999505   0.3749786   0.8750301  )
       160           Al  tau( 160) = (   0.4999712   0.4999712   0.0000000  )
       161           Al  tau( 161) = (   0.6251171   0.6251171   0.0000000  )
       162           Al  tau( 162) = (   0.6249761   0.5000103   0.1250182  )
       163           Al  tau( 163) = (   0.5000103   0.6249761   0.1250182  )
       164           Al  tau( 164) = (   0.4999983   0.4999983   0.2500543  )
       165           Al  tau( 165) = (   0.6249884   0.6249884   0.2499891  )
       166           Al  tau( 166) = (   0.6250235   0.4999803   0.3749515  )
       167           Al  tau( 167) = (   0.4999803   0.6250235   0.3749515  )
       168           Al  tau( 168) = (   0.4999919   0.4999919   0.5000000  )
       169           Al  tau( 169) = (   0.6250197   0.6250197   0.5000000  )
       170           Al  tau( 170) = (   0.6250235   0.4999803   0.6250486  )
       171           Al  tau( 171) = (   0.4999803   0.6250235   0.6250486  )
       172           Al  tau( 172) = (   0.4999983   0.4999983   0.7499457  )
       173           Al  tau( 173) = (   0.6249884   0.6249884   0.7500109  )
       174           Al  tau( 174) = (   0.6249761   0.5000103   0.8749818  )
       175           Al  tau( 175) = (   0.5000103   0.6249761   0.8749818  )
       176           Al  tau( 176) = (   0.4999615   0.7500024   0.0000000  )
       177           Al  tau( 177) = (   0.6249651   0.8750604   0.0000000  )
       178           Al  tau( 178) = (   0.6250940   0.7499973   0.1249053  )
       179           Al  tau( 179) = (   0.4999556   0.8749868   0.1250074  )
       180           Al  tau( 180) = (   0.5000086   0.7500072   0.2499665  )
       181           Al  tau( 181) = (   0.6250759   0.8750880   0.2499937  )
       182           Al  tau( 182) = (   0.6249726   0.7500334   0.3750171  )
       183           Al  tau( 183) = (   0.5000098   0.8749951   0.3750320  )
       184           Al  tau( 184) = (   0.4999929   0.7499582   0.5000000  )
       185           Al  tau( 185) = (   0.6249942   0.8750010   0.5000000  )
       186           Al  tau( 186) = (   0.6249726   0.7500334   0.6249830  )
       187           Al  tau( 187) = (   0.5000098   0.8749951   0.6249680  )
       188           Al  tau( 188) = (   0.5000086   0.7500072   0.7500335  )
       189           Al  tau( 189) = (   0.6250759   0.8750880   0.7500063  )
       190           Al  tau( 190) = (   0.6250940   0.7499973   0.8750947  )
       191           Al  tau( 191) = (   0.4999556   0.8749868   0.8749926  )
       192           Al  tau( 192) = (   0.7502727   0.0000019   0.0000000  )
       193           Al  tau( 193) = (   0.8770524   0.1229427   0.0000000  )
       194           Al  tau( 194) = (   0.8774851   0.0002460   0.1227262  )
       195           Al  tau( 195) = (   0.7502708   0.1248835   0.1248874  )
       196           Al  tau( 196) = (   0.7509227   0.0000184   0.2491016  )
       197           Al  tau( 197) = (   0.8754662   0.1249006   0.2494720  )
       198           Al  tau( 198) = (   0.8751003   0.0000157   0.3749712  )
       199           Al  tau( 199) = (   0.7500427   0.1249086   0.3748679  )
       200           Al  tau( 200) = (   0.7499844   0.0000091   0.5000000  )
       201           Al  tau( 201) = (   0.8750199   0.1250376   0.5000000  )
       202           Al  tau( 202) = (   0.8751003   0.0000157   0.6250288  )
       203           Al  tau( 203) = (   0.7500427   0.1249086   0.6251321  )
       204           Al  tau( 204) = (   0.7509227   0.0000184   0.7508984  )
       205           Al  tau( 205) = (   0.8754662   0.1249006   0.7505280  )
       206           Al  tau( 206) = (   0.8774851   0.0002460   0.8772739  )
       207           Al  tau( 207) = (   0.7502708   0.1248835   0.8751127  )
       208           Al  tau( 208) = (   0.7510208   0.2490842   0.0000000  )
       209           Al  tau( 209) = (   0.8753392   0.3747010   0.0000000  )
       210           Al  tau( 210) = (   0.8753536   0.2497464   0.1248892  )
       211           Al  tau( 211) = (   0.7500530   0.3748679   0.1248694  )
       212           Al  tau( 212) = (   0.7498662   0.2501376   0.2501423  )
       213           Al  tau( 213) = (   0.8750324   0.3749834   0.2500733  )
       214           Al  tau( 214) = (   0.8751214   0.2499777   0.3748918  )
       215           Al  tau( 215) = (   0.7500107   0.3750174   0.3750363  )
       216           Al  tau( 216) = (   0.7500171   0.2499699   0.5000000  )
       217           Al  tau( 217) = (   0.8749973   0.3750118   0.5000000  )
       218           Al  tau( 218) = (   0.8751214   0.2499777   0.6251082  )
       219           Al  tau( 219) = (   0.7500107   0.3750174   0.6249637  )
       220           Al  tau( 220) = (   0.7498662   0.2501376   0.7498578  )
       221           Al  tau( 221) = (   0.8750324   0.3749834   0.7499267  )
       222           Al  tau( 222) = (   0.8753536   0.2497464   0.8751108  )
       223           Al  tau( 223) = (   0.7500530   0.3748679   0.8751306  )
       224           Al  tau( 224) = (   0.7500024   0.4999615   0.0000000  )
       225           Al  tau( 225) = (   0.8750604   0.6249651   0.0000000  )
       226           Al  tau( 226) = (   0.8749868   0.4999556   0.1250074  )
       227           Al  tau( 227) = (   0.7499973   0.6250940   0.1249053  )
       228           Al  tau( 228) = (   0.7500072   0.5000086   0.2499665  )
       229           Al  tau( 229) = (   0.8750880   0.6250759   0.2499937  )
       230           Al  tau( 230) = (   0.8749951   0.5000098   0.3750320  )
       231           Al  tau( 231) = (   0.7500334   0.6249726   0.3750171  )
       232           Al  tau( 232) = (   0.7499582   0.4999929   0.5000000  )
       233           Al  tau( 233) = (   0.8750010   0.6249942   0.5000000  )
       234           Al  tau( 234) = (   0.8749951   0.5000098   0.6249680  )
       235           Al  tau( 235) = (   0.7500334   0.6249726   0.6249830  )
       236           Al  tau( 236) = (   0.7500072   0.5000086   0.7500335  )
       237           Al  tau( 237) = (   0.8750880   0.6250759   0.7500063  )
       238           Al  tau( 238) = (   0.8749868   0.4999556   0.8749926  )
       239           Al  tau( 239) = (   0.7499973   0.6250940   0.8750947  )
       240           Al  tau( 240) = (   0.7508946   0.7508946   0.0000000  )
       241           Al  tau( 241) = (   0.8772045   0.8772045   0.0000000  )
       242           Al  tau( 242) = (   0.8751598   0.7502379   0.1249032  )
       243           Al  tau( 243) = (   0.7502379   0.8751598   0.1249032  )
       244           Al  tau( 244) = (   0.7498488   0.7498488   0.2501567  )
       245           Al  tau( 245) = (   0.8751539   0.8751539   0.2497878  )
       246           Al  tau( 246) = (   0.8750754   0.7499872   0.3749185  )
       247           Al  tau( 247) = (   0.7499872   0.8750754   0.3749185  )
       248           Al  tau( 248) = (   0.7500277   0.7500277   0.5000000  )
       249           Al  tau( 249) = (   0.8749655   0.8749655   0.5000000  )
       250           Al  tau( 250) = (   0.8750754   0.7499872   0.6250815  )
       251           Al  tau( 251) = (   0.7499872   0.8750754   0.6250815  )
       252           Al  tau( 252) = (   0.7498488   0.7498488   0.7498434  )
       253           Al  tau( 253) = (   0.8751539   0.8751539   0.7502122  )
       254           Al  tau( 254) = (   0.8751598   0.7502379   0.8750968  )
       255           Al  tau( 255) = (   0.7502379   0.8751598   0.8750968  )

   Crystallographic axes

     site n.     atom                  positions (cryst. coord.)
         1           Al  tau(   1) = (  0.1226760  0.0011226  0.1206736  )
         2           Si  tau(   2) = (  0.1230392  0.1230392  0.0000000  )
         3           Al  tau(   3) = (  0.0011226  0.1226760  0.1206736  )
         4           Al  tau(   4) = (  0.0002179  0.0002179  0.2491346  )
         5           Al  tau(   5) = (  0.1247906  0.1247906  0.2491232  )
         6           Al  tau(   6) = (  0.1249423  0.0000634  0.3748219  )
         7           Al  tau(   7) = (  0.0000634  0.1249423  0.3748219  )
         8           Al  tau(   8) = (  0.0000194  0.0000194  0.5000000  )
         9           Al  tau(   9) = (  0.1250308  0.1250308  0.5000000  )
        10           Al  tau(  10) = (  0.1249423  0.0000634  0.6251781  )
        11           Al  tau(  11) = (  0.0000634  0.1249423  0.6251781  )
        12           Al  tau(  12) = (  0.0002179  0.0002179  0.7508654  )
        13           Al  tau(  13) = (  0.1247906  0.1247906  0.7508768  )
        14           Al  tau(  14) = (  0.1226760  0.0011226  0.8793264  )
        15           Al  tau(  15) = (  0.0011226  0.1226760  0.8793264  )
        16           Al  tau(  16) = (  0.0006942  0.2493205  0.0000000  )
        17           Al  tau(  17) = (  0.1249937  0.3746211  0.0000000  )
        18           Al  tau(  18) = (  0.1248205  0.2492138  0.1243387  )
        19           Al  tau(  19) = (  0.0000579  0.3748214  0.1249281  )
        20           Al  tau(  20) = (  0.0000508  0.2489712  0.2488281  )
        21           Al  tau(  21) = (  0.1249166  0.3746176  0.2497227  )
        22           Al  tau(  22) = (  0.1249157  0.2499318  0.3747753  )
        23           Al  tau(  23) = (  0.0000336  0.3748328  0.3748265  )
        24           Al  tau(  24) = (  0.0000088  0.2500088  0.5000000  )
        25           Al  tau(  25) = (  0.1250096  0.3749640  0.5000000  )
        26           Al  tau(  26) = (  0.1249157  0.2499318  0.6252247  )
        27           Al  tau(  27) = (  0.0000336  0.3748328  0.6251735  )
        28           Al  tau(  28) = (  0.0000508  0.2489712  0.7511719  )
        29           Al  tau(  29) = (  0.1249166  0.3746176  0.7502773  )
        30           Al  tau(  30) = (  0.1248205  0.2492138  0.8756613  )
        31           Al  tau(  31) = (  0.0000579  0.3748214  0.8750719  )
        32           Al  tau(  32) = (  0.0000273  0.4998665  0.0000000  )
        33           Al  tau(  33) = (  0.1249811  0.6249187  0.0000000  )
        34           Al  tau(  34) = (  0.1250458  0.4998405  0.1249984  )
        35           Al  tau(  35) = (  0.0000069  0.6249669  0.1249626  )
        36           Al  tau(  36) = (  0.0000292  0.4999637  0.2499977  )
        37           Al  tau(  37) = (  0.1249176  0.6250811  0.2499627  )
        38           Al  tau(  38) = (  0.1250110  0.4999633  0.3749779  )
        39           Al  tau(  39) = (  0.0000035  0.6251320  0.3748658  )
        40           Al  tau(  40) = (  0.0000035  0.4999988  0.5000000  )
        41           Al  tau(  41) = (  0.1250073  0.6249789  0.5000000  )
        42           Al  tau(  42) = (  0.1250110  0.4999633  0.6250221  )
        43           Al  tau(  43) = (  0.0000035  0.6251320  0.6251342  )
        44           Al  tau(  44) = (  0.0000292  0.4999637  0.7500023  )
        45           Al  tau(  45) = (  0.1249176  0.6250811  0.7500373  )
        46           Al  tau(  46) = (  0.1250458  0.4998405  0.8750016  )
        47           Al  tau(  47) = (  0.0000069  0.6249669  0.8750374  )
        48           Al  tau(  48) = (  0.0000019  0.7502727  0.0000000  )
        49           Al  tau(  49) = (  0.1229427  0.8770524  0.0000000  )
        50           Al  tau(  50) = (  0.1248835  0.7502708  0.1248874  )
        51           Al  tau(  51) = (  0.0002460  0.8774851  0.1227262  )
        52           Al  tau(  52) = (  0.0000184  0.7509227  0.2491016  )
        53           Al  tau(  53) = (  0.1249006  0.8754662  0.2494720  )
        54           Al  tau(  54) = (  0.1249086  0.7500427  0.3748679  )
        55           Al  tau(  55) = (  0.0000157  0.8751003  0.3749712  )
        56           Al  tau(  56) = (  0.0000091  0.7499844  0.5000000  )
        57           Al  tau(  57) = (  0.1250376  0.8750199  0.5000000  )
        58           Al  tau(  58) = (  0.1249086  0.7500427  0.6251321  )
        59           Al  tau(  59) = (  0.0000157  0.8751003  0.6250288  )
        60           Al  tau(  60) = (  0.0000184  0.7509227  0.7508984  )
        61           Al  tau(  61) = (  0.1249006  0.8754662  0.7505280  )
        62           Al  tau(  62) = (  0.1248835  0.7502708  0.8751127  )
        63           Al  tau(  63) = (  0.0002460  0.8774851  0.8772739  )
        64           Al  tau(  64) = (  0.2493205  0.0006942  0.0000000  )
        65           Al  tau(  65) = (  0.3746211  0.1249937  0.0000000  )
        66           Al  tau(  66) = (  0.3748214  0.0000579  0.1249281  )
        67           Al  tau(  67) = (  0.2492138  0.1248205  0.1243387  )
        68           Al  tau(  68) = (  0.2489712  0.0000508  0.2488281  )
        69           Al  tau(  69) = (  0.3746176  0.1249166  0.2497227  )
        70           Al  tau(  70) = (  0.3748328  0.0000336  0.3748265  )
        71           Al  tau(  71) = (  0.2499318  0.1249157  0.3747753  )
        72           Al  tau(  72) = (  0.2500088  0.0000088  0.5000000  )
        73           Al  tau(  73) = (  0.3749640  0.1250096  0.5000000  )
        74           Al  tau(  74) = (  0.3748328  0.0000336  0.6251735  )
        75           Al  tau(  75) = (  0.2499318  0.1249157  0.6252247  )
        76           Al  tau(  76) = (  0.2489712  0.0000508  0.7511719  )
        77           Al  tau(  77) = (  0.3746176  0.1249166  0.7502773  )
        78           Al  tau(  78) = (  0.3748214  0.0000579  0.8750719  )
        79           Al  tau(  79) = (  0.2492138  0.1248205  0.8756613  )
        80           Al  tau(  80) = (  0.2484474  0.2484474  0.0000000  )
        81           Al  tau(  81) = (  0.3745449  0.3745449  0.0000000  )
        82           Al  tau(  82) = (  0.3746682  0.2499547  0.1248816  )
        83           Al  tau(  83) = (  0.2499547  0.3746682  0.1248816  )
        84           Al  tau(  84) = (  0.2500201  0.2500201  0.2498974  )
        85           Al  tau(  85) = (  0.3750701  0.3750701  0.2500513  )
        86           Al  tau(  86) = (  0.3749800  0.2499557  0.3749683  )
        87           Al  tau(  87) = (  0.2499557  0.3749800  0.3749683  )
        88           Al  tau(  88) = (  0.2499810  0.2499810  0.5000000  )
        89           Al  tau(  89) = (  0.3749738  0.3749738  0.5000000  )
        90           Al  tau(  90) = (  0.3749800  0.2499557  0.6250317  )
        91           Al  tau(  91) = (  0.2499557  0.3749800  0.6250317  )
        92           Al  tau(  92) = (  0.2500201  0.2500201  0.7501026  )
        93           Al  tau(  93) = (  0.3750701  0.3750701  0.7499487  )
        94           Al  tau(  94) = (  0.3746682  0.2499547  0.8751184  )
        95           Al  tau(  95) = (  0.2499547  0.3746682  0.8751184  )
        96           Al  tau(  96) = (  0.2500059  0.4998473  0.0000000  )
        97           Al  tau(  97) = (  0.3748282  0.6251320  0.0000000  )
        98           Al  tau(  98) = (  0.3749786  0.4999505  0.1249699  )
        99           Al  tau(  99) = (  0.2499978  0.6250960  0.1248985  )
       100           Al  tau( 100) = (  0.2499551  0.4999599  0.2499370  )
       101           Al  tau( 101) = (  0.3750096  0.6249767  0.2499545  )
       102           Al  tau( 102) = (  0.3749667  0.5000132  0.3749903  )
       103           Al  tau( 103) = (  0.2499746  0.6249779  0.3750272  )
       104           Al  tau( 104) = (  0.2500510  0.4999895  0.5000000  )
       105           Al  tau( 105) = (  0.3749797  0.6250267  0.5000000  )
       106           Al  tau( 106) = (  0.3749667  0.5000132  0.6250097  )
       107           Al  tau( 107) = (  0.2499746  0.6249779  0.6249728  )
       108           Al  tau( 108) = (  0.2499551  0.4999599  0.7500630  )
       109           Al  tau( 109) = (  0.3750096  0.6249767  0.7500456  )
       110           Al  tau( 110) = (  0.3749786  0.4999505  0.8750301  )
       111           Al  tau( 111) = (  0.2499978  0.6250960  0.8751015  )
       112           Al  tau( 112) = (  0.2490842  0.7510208  0.0000000  )
       113           Al  tau( 113) = (  0.3747010  0.8753392  0.0000000  )
       114           Al  tau( 114) = (  0.3748679  0.7500530  0.1248694  )
       115           Al  tau( 115) = (  0.2497464  0.8753536  0.1248892  )
       116           Al  tau( 116) = (  0.2501376  0.7498662  0.2501423  )
       117           Al  tau( 117) = (  0.3749834  0.8750324  0.2500733  )
       118           Al  tau( 118) = (  0.3750174  0.7500107  0.3750363  )
       119           Al  tau( 119) = (  0.2499777  0.8751214  0.3748918  )
       120           Al  tau( 120) = (  0.2499699  0.7500171  0.5000000  )
       121           Al  tau( 121) = (  0.3750118  0.8749973  0.5000000  )
       122           Al  tau( 122) = (  0.3750174  0.7500107  0.6249637  )
       123           Al  tau( 123) = (  0.2499777  0.8751214  0.6251082  )
       124           Al  tau( 124) = (  0.2501376  0.7498662  0.7498578  )
       125           Al  tau( 125) = (  0.3749834  0.8750324  0.7499267  )
       126           Al  tau( 126) = (  0.3748679  0.7500530  0.8751306  )
       127           Al  tau( 127) = (  0.2497464  0.8753536  0.8751108  )
       128           Al  tau( 128) = (  0.4998665  0.0000273  0.0000000  )
       129           Al  tau( 129) = (  0.6249187  0.1249811  0.0000000  )
       130           Al  tau( 130) = (  0.6249669  0.0000069  0.1249626  )
       131           Al  tau( 131) = (  0.4998405  0.1250458  0.1249984  )
       132           Al  tau( 132) = (  0.4999637  0.0000292  0.2499977  )
       133           Al  tau( 133) = (  0.6250811  0.1249176  0.2499627  )
       134           Al  tau( 134) = (  0.6251320  0.0000035  0.3748658  )
       135           Al  tau( 135) = (  0.4999633  0.1250110  0.3749779  )
       136           Al  tau( 136) = (  0.4999988  0.0000035  0.5000000  )
       137           Al  tau( 137) = (  0.6249789  0.1250073  0.5000000  )
       138           Al  tau( 138) = (  0.6251320  0.0000035  0.6251342  )
       139           Al  tau( 139) = (  0.4999633  0.1250110  0.6250221  )
       140           Al  tau( 140) = (  0.4999637  0.0000292  0.7500023  )
       141           Al  tau( 141) = (  0.6250811  0.1249176  0.7500373  )
       142           Al  tau( 142) = (  0.6249669  0.0000069  0.8750374  )
       143           Al  tau( 143) = (  0.4998405  0.1250458  0.8750016  )
       144           Al  tau( 144) = (  0.4998473  0.2500059  0.0000000  )
       145           Al  tau( 145) = (  0.6251320  0.3748282  0.0000000  )
       146           Al  tau( 146) = (  0.6250960  0.2499978  0.1248985  )
       147           Al  tau( 147) = (  0.4999505  0.3749786  0.1249699  )
       148           Al  tau( 148) = (  0.4999599  0.2499551  0.2499370  )
       149           Al  tau( 149) = (  0.6249767  0.3750096  0.2499545  )
       150           Al  tau( 150) = (  0.6249779  0.2499746  0.3750272  )
       151           Al  tau( 151) = (  0.5000132  0.3749667  0.3749903  )
       152           Al  tau( 152) = (  0.4999895  0.2500510  0.5000000  )
       153           Al  tau( 153) = (  0.6250267  0.3749797  0.5000000  )
       154           Al  tau( 154) = (  0.6249779  0.2499746  0.6249728  )
       155           Al  tau( 155) = (  0.5000132  0.3749667  0.6250097  )
       156           Al  tau( 156) = (  0.4999599  0.2499551  0.7500630  )
       157           Al  tau( 157) = (  0.6249767  0.3750096  0.7500456  )
       158           Al  tau( 158) = (  0.6250960  0.2499978  0.8751015  )
       159           Al  tau( 159) = (  0.4999505  0.3749786  0.8750301  )
       160           Al  tau( 160) = (  0.4999712  0.4999712  0.0000000  )
       161           Al  tau( 161) = (  0.6251171  0.6251171  0.0000000  )
       162           Al  tau( 162) = (  0.6249761  0.5000103  0.1250182  )
       163           Al  tau( 163) = (  0.5000103  0.6249761  0.1250182  )
       164           Al  tau( 164) = (  0.4999983  0.4999983  0.2500543  )
       165           Al  tau( 165) = (  0.6249884  0.6249884  0.2499891  )
       166           Al  tau( 166) = (  0.6250235  0.4999803  0.3749515  )
       167           Al  tau( 167) = (  0.4999803  0.6250235  0.3749515  )
       168           Al  tau( 168) = (  0.4999919  0.4999919  0.5000000  )
       169           Al  tau( 169) = (  0.6250197  0.6250197  0.5000000  )
       170           Al  tau( 170) = (  0.6250235  0.4999803  0.6250486  )
       171           Al  tau( 171) = (  0.4999803  0.6250235  0.6250486  )
       172           Al  tau( 172) = (  0.4999983  0.4999983  0.7499457  )
       173           Al  tau( 173) = (  0.6249884  0.6249884  0.7500109  )
       174           Al  tau( 174) = (  0.6249761  0.5000103  0.8749818  )
       175           Al  tau( 175) = (  0.5000103  0.6249761  0.8749818  )
       176           Al  tau( 176) = (  0.4999615  0.7500024  0.0000000  )
       177           Al  tau( 177) = (  0.6249651  0.8750604  0.0000000  )
       178           Al  tau( 178) = (  0.6250940  0.7499973  0.1249053  )
       179           Al  tau( 179) = (  0.4999556  0.8749868  0.1250074  )
       180           Al  tau( 180) = (  0.5000086  0.7500072  0.2499665  )
       181           Al  tau( 181) = (  0.6250759  0.8750880  0.2499937  )
       182           Al  tau( 182) = (  0.6249726  0.7500334  0.3750171  )
       183           Al  tau( 183) = (  0.5000098  0.8749951  0.3750320  )
       184           Al  tau( 184) = (  0.4999929  0.7499582  0.5000000  )
       185           Al  tau( 185) = (  0.6249942  0.8750010  0.5000000  )
       186           Al  tau( 186) = (  0.6249726  0.7500334  0.6249830  )
       187           Al  tau( 187) = (  0.5000098  0.8749951  0.6249680  )
       188           Al  tau( 188) = (  0.5000086  0.7500072  0.7500335  )
       189           Al  tau( 189) = (  0.6250759  0.8750880  0.7500063  )
       190           Al  tau( 190) = (  0.6250940  0.7499973  0.8750947  )
       191           Al  tau( 191) = (  0.4999556  0.8749868  0.8749926  )
       192           Al  tau( 192) = (  0.7502727  0.0000019  0.0000000  )
       193           Al  tau( 193) = (  0.8770524  0.1229427  0.0000000  )
       194           Al  tau( 194) = (  0.8774851  0.0002460  0.1227262  )
       195           Al  tau( 195) = (  0.7502708  0.1248835  0.1248874  )
       196           Al  tau( 196) = (  0.7509227  0.0000184  0.2491016  )
       197           Al  tau( 197) = (  0.8754662  0.1249006  0.2494720  )
       198           Al  tau( 198) = (  0.8751003  0.0000157  0.3749712  )
       199           Al  tau( 199) = (  0.7500427  0.1249086  0.3748679  )
       200           Al  tau( 200) = (  0.7499844  0.0000091  0.5000000  )
       201           Al  tau( 201) = (  0.8750199  0.1250376  0.5000000  )
       202           Al  tau( 202) = (  0.8751003  0.0000157  0.6250288  )
       203           Al  tau( 203) = (  0.7500427  0.1249086  0.6251321  )
       204           Al  tau( 204) = (  0.7509227  0.0000184  0.7508984  )
       205           Al  tau( 205) = (  0.8754662  0.1249006  0.7505280  )
       206           Al  tau( 206) = (  0.8774851  0.0002460  0.8772739  )
       207           Al  tau( 207) = (  0.7502708  0.1248835  0.8751127  )
       208           Al  tau( 208) = (  0.7510208  0.2490842  0.0000000  )
       209           Al  tau( 209) = (  0.8753392  0.3747010  0.0000000  )
       210           Al  tau( 210) = (  0.8753536  0.2497464  0.1248892  )
       211           Al  tau( 211) = (  0.7500530  0.3748679  0.1248694  )
       212           Al  tau( 212) = (  0.7498662  0.2501376  0.2501423  )
       213           Al  tau( 213) = (  0.8750324  0.3749834  0.2500733  )
       214           Al  tau( 214) = (  0.8751214  0.2499777  0.3748918  )
       215           Al  tau( 215) = (  0.7500107  0.3750174  0.3750363  )
       216           Al  tau( 216) = (  0.7500171  0.2499699  0.5000000  )
       217           Al  tau( 217) = (  0.8749973  0.3750118  0.5000000  )
       218           Al  tau( 218) = (  0.8751214  0.2499777  0.6251082  )
       219           Al  tau( 219) = (  0.7500107  0.3750174  0.6249637  )
       220           Al  tau( 220) = (  0.7498662  0.2501376  0.7498578  )
       221           Al  tau( 221) = (  0.8750324  0.3749834  0.7499267  )
       222           Al  tau( 222) = (  0.8753536  0.2497464  0.8751108  )
       223           Al  tau( 223) = (  0.7500530  0.3748679  0.8751306  )
       224           Al  tau( 224) = (  0.7500024  0.4999615  0.0000000  )
       225           Al  tau( 225) = (  0.8750604  0.6249651  0.0000000  )
       226           Al  tau( 226) = (  0.8749868  0.4999556  0.1250074  )
       227           Al  tau( 227) = (  0.7499973  0.6250940  0.1249053  )
       228           Al  tau( 228) = (  0.7500072  0.5000086  0.2499665  )
       229           Al  tau( 229) = (  0.8750880  0.6250759  0.2499937  )
       230           Al  tau( 230) = (  0.8749951  0.5000098  0.3750320  )
       231           Al  tau( 231) = (  0.7500334  0.6249726  0.3750171  )
       232           Al  tau( 232) = (  0.7499582  0.4999929  0.5000000  )
       233           Al  tau( 233) = (  0.8750010  0.6249942  0.5000000  )
       234           Al  tau( 234) = (  0.8749951  0.5000098  0.6249680  )
       235           Al  tau( 235) = (  0.7500334  0.6249726  0.6249830  )
       236           Al  tau( 236) = (  0.7500072  0.5000086  0.7500335  )
       237           Al  tau( 237) = (  0.8750880  0.6250759  0.7500063  )
       238           Al  tau( 238) = (  0.8749868  0.4999556  0.8749926  )
       239           Al  tau( 239) = (  0.7499973  0.6250940  0.8750947  )
       240           Al  tau( 240) = (  0.7508946  0.7508946  0.0000000  )
       241           Al  tau( 241) = (  0.8772045  0.8772045  0.0000000  )
       242           Al  tau( 242) = (  0.8751598  0.7502379  0.1249032  )
       243           Al  tau( 243) = (  0.7502379  0.8751598  0.1249032  )
       244           Al  tau( 244) = (  0.7498488  0.7498488  0.2501567  )
       245           Al  tau( 245) = (  0.8751539  0.8751539  0.2497878  )
       246           Al  tau( 246) = (  0.8750754  0.7499872  0.3749185  )
       247           Al  tau( 247) = (  0.7499872  0.8750754  0.3749185  )
       248           Al  tau( 248) = (  0.7500277  0.7500277  0.5000000  )
       249           Al  tau( 249) = (  0.8749655  0.8749655  0.5000000  )
       250           Al  tau( 250) = (  0.8750754  0.7499872  0.6250815  )
       251           Al  tau( 251) = (  0.7499872  0.8750754  0.6250815  )
       252           Al  tau( 252) = (  0.7498488  0.7498488  0.7498434  )
       253           Al  tau( 253) = (  0.8751539  0.8751539  0.7502122  )
       254           Al  tau( 254) = (  0.8751598  0.7502379  0.8750968  )
       255           Al  tau( 255) = (  0.7502379  0.8751598  0.8750968  )

     number of k points=    63  Methfessel-Paxton smearing, width (Ry)=  0.0441
                       cart. coord. in units 2pi/alat
        k(    1) = (   0.0000000   0.0000000   0.0000000), wk =   0.0160000
        k(    2) = (   0.0000000   0.0000000   0.2000000), wk =   0.0320000
        k(    3) = (   0.0000000   0.0000000   0.4000000), wk =   0.0320000
        k(    4) = (   0.0000000   0.2000000   0.0000000), wk =   0.0320000
        k(    5) = (   0.0000000   0.2000000   0.2000000), wk =   0.0320000
        k(    6) = (   0.0000000   0.2000000   0.4000000), wk =   0.0320000
        k(    7) = (   0.0000000   0.2000000  -0.4000000), wk =   0.0320000
        k(    8) = (   0.0000000   0.2000000  -0.2000000), wk =   0.0320000
        k(    9) = (   0.0000000   0.4000000   0.0000000), wk =   0.0320000
        k(   10) = (   0.0000000   0.4000000   0.2000000), wk =   0.0320000
        k(   11) = (   0.0000000   0.4000000   0.4000000), wk =   0.0320000
        k(   12) = (   0.0000000   0.4000000  -0.4000000), wk =   0.0320000
        k(   13) = (   0.0000000   0.4000000  -0.2000000), wk =   0.0320000
        k(   14) = (   0.2000000   0.0000000   0.0000000), wk =   0.0320000
        k(   15) = (   0.2000000   0.0000000   0.2000000), wk =   0.0320000
        k(   16) = (   0.2000000   0.0000000   0.4000000), wk =   0.0320000
        k(   17) = (   0.2000000   0.0000000  -0.4000000), wk =   0.0320000
        k(   18) = (   0.2000000   0.0000000  -0.2000000), wk =   0.0320000
        k(   19) = (   0.2000000   0.2000000   0.0000000), wk =   0.0320000
        k(   20) = (   0.2000000   0.2000000   0.2000000), wk =   0.0320000
        k(   21) = (   0.2000000   0.2000000   0.4000000), wk =   0.0320000
        k(   22) = (   0.2000000   0.2000000  -0.4000000), wk =   0.0320000
        k(   23) = (   0.2000000   0.2000000  -0.2000000), wk =   0.0320000
        k(   24) = (   0.2000000   0.4000000   0.0000000), wk =   0.0320000
        k(   25) = (   0.2000000   0.4000000   0.2000000), wk =   0.0320000
        k(   26) = (   0.2000000   0.4000000   0.4000000), wk =   0.0320000
        k(   27) = (   0.2000000   0.4000000  -0.4000000), wk =   0.0320000
        k(   28) = (   0.2000000   0.4000000  -0.2000000), wk =   0.0320000
        k(   29) = (   0.2000000  -0.4000000   0.0000000), wk =   0.0320000
        k(   30) = (   0.2000000  -0.4000000   0.2000000), wk =   0.0320000
        k(   31) = (   0.2000000  -0.4000000   0.4000000), wk =   0.0320000
        k(   32) = (   0.2000000  -0.4000000  -0.4000000), wk =   0.0320000
        k(   33) = (   0.2000000  -0.4000000  -0.2000000), wk =   0.0320000
        k(   34) = (   0.2000000  -0.2000000   0.0000000), wk =   0.0320000
        k(   35) = (   0.2000000  -0.2000000   0.2000000), wk =   0.0320000
        k(   36) = (   0.2000000  -0.2000000   0.4000000), wk =   0.0320000
        k(   37) = (   0.2000000  -0.2000000  -0.4000000), wk =   0.0320000
        k(   38) = (   0.2000000  -0.2000000  -0.2000000), wk =   0.0320000
        k(   39) = (   0.4000000   0.0000000   0.0000000), wk =   0.0320000
        k(   40) = (   0.4000000   0.0000000   0.2000000), wk =   0.0320000
        k(   41) = (   0.4000000   0.0000000   0.4000000), wk =   0.0320000
        k(   42) = (   0.4000000   0.0000000  -0.4000000), wk =   0.0320000
        k(   43) = (   0.4000000   0.0000000  -0.2000000), wk =   0.0320000
        k(   44) = (   0.4000000   0.2000000   0.0000000), wk =   0.0320000
        k(   45) = (   0.4000000   0.2000000   0.2000000), wk =   0.0320000
        k(   46) = (   0.4000000   0.2000000   0.4000000), wk =   0.0320000
        k(   47) = (   0.4000000   0.2000000  -0.4000000), wk =   0.0320000
        k(   48) = (   0.4000000   0.2000000  -0.2000000), wk =   0.0320000
        k(   49) = (   0.4000000   0.4000000   0.0000000), wk =   0.0320000
        k(   50) = (   0.4000000   0.4000000   0.2000000), wk =   0.0320000
        k(   51) = (   0.4000000   0.4000000   0.4000000), wk =   0.0320000
        k(   52) = (   0.4000000   0.4000000  -0.4000000), wk =   0.0320000
        k(   53) = (   0.4000000   0.4000000  -0.2000000), wk =   0.0320000
        k(   54) = (   0.4000000  -0.4000000   0.0000000), wk =   0.0320000
        k(   55) = (   0.4000000  -0.4000000   0.2000000), wk =   0.0320000
        k(   56) = (   0.4000000  -0.4000000   0.4000000), wk =   0.0320000
        k(   57) = (   0.4000000  -0.4000000  -0.4000000), wk =   0.0320000
        k(   58) = (   0.4000000  -0.4000000  -0.2000000), wk =   0.0320000
        k(   59) = (   0.4000000  -0.2000000   0.0000000), wk =   0.0320000
        k(   60) = (   0.4000000  -0.2000000   0.2000000), wk =   0.0320000
        k(   61) = (   0.4000000  -0.2000000   0.4000000), wk =   0.0320000
        k(   62) = (   0.4000000  -0.2000000  -0.4000000), wk =   0.0320000
        k(   63) = (   0.4000000  -0.2000000  -0.2000000), wk =   0.0320000

                       cryst. coord.
        k(    1) = (   0.0000000   0.0000000   0.0000000), wk =   0.0160000
        k(    2) = (   0.0000000   0.0000000   0.2000000), wk =   0.0320000
        k(    3) = (   0.0000000   0.0000000   0.4000000), wk =   0.0320000
        k(    4) = (   0.0000000   0.2000000   0.0000000), wk =   0.0320000
        k(    5) = (   0.0000000   0.2000000   0.2000000), wk =   0.0320000
        k(    6) = (   0.0000000   0.2000000   0.4000000), wk =   0.0320000
        k(    7) = (   0.0000000   0.2000000  -0.4000000), wk =   0.0320000
        k(    8) = (   0.0000000   0.2000000  -0.2000000), wk =   0.0320000
        k(    9) = (   0.0000000   0.4000000   0.0000000), wk =   0.0320000
        k(   10) = (   0.0000000   0.4000000   0.2000000), wk =   0.0320000
        k(   11) = (   0.0000000   0.4000000   0.4000000), wk =   0.0320000
        k(   12) = (   0.0000000   0.4000000  -0.4000000), wk =   0.0320000
        k(   13) = (   0.0000000   0.4000000  -0.2000000), wk =   0.0320000
        k(   14) = (   0.2000000   0.0000000   0.0000000), wk =   0.0320000
        k(   15) = (   0.2000000   0.0000000   0.2000000), wk =   0.0320000
        k(   16) = (   0.2000000   0.0000000   0.4000000), wk =   0.0320000
        k(   17) = (   0.2000000   0.0000000  -0.4000000), wk =   0.0320000
        k(   18) = (   0.2000000   0.0000000  -0.2000000), wk =   0.0320000
        k(   19) = (   0.2000000   0.2000000   0.0000000), wk =   0.0320000
        k(   20) = (   0.2000000   0.2000000   0.2000000), wk =   0.0320000
        k(   21) = (   0.2000000   0.2000000   0.4000000), wk =   0.0320000
        k(   22) = (   0.2000000   0.2000000  -0.4000000), wk =   0.0320000
        k(   23) = (   0.2000000   0.2000000  -0.2000000), wk =   0.0320000
        k(   24) = (   0.2000000   0.4000000   0.0000000), wk =   0.0320000
        k(   25) = (   0.2000000   0.4000000   0.2000000), wk =   0.0320000
        k(   26) = (   0.2000000   0.4000000   0.4000000), wk =   0.0320000
        k(   27) = (   0.2000000   0.4000000  -0.4000000), wk =   0.0320000
        k(   28) = (   0.2000000   0.4000000  -0.2000000), wk =   0.0320000
        k(   29) = (   0.2000000  -0.4000000   0.0000000), wk =   0.0320000
        k(   30) = (   0.2000000  -0.4000000   0.2000000), wk =   0.0320000
        k(   31) = (   0.2000000  -0.4000000   0.4000000), wk =   0.0320000
        k(   32) = (   0.2000000  -0.4000000  -0.4000000), wk =   0.0320000
        k(   33) = (   0.2000000  -0.4000000  -0.2000000), wk =   0.0320000
        k(   34) = (   0.2000000  -0.2000000   0.0000000), wk =   0.0320000
        k(   35) = (   0.2000000  -0.2000000   0.2000000), wk =   0.0320000
        k(   36) = (   0.2000000  -0.2000000   0.4000000), wk =   0.0320000
        k(   37) = (   0.2000000  -0.2000000  -0.4000000), wk =   0.0320000
        k(   38) = (   0.2000000  -0.2000000  -0.2000000), wk =   0.0320000
        k(   39) = (   0.4000000   0.0000000   0.0000000), wk =   0.0320000
        k(   40) = (   0.4000000   0.0000000   0.2000000), wk =   0.0320000
        k(   41) = (   0.4000000   0.0000000   0.4000000), wk =   0.0320000
        k(   42) = (   0.4000000   0.0000000  -0.4000000), wk =   0.0320000
        k(   43) = (   0.4000000   0.0000000  -0.2000000), wk =   0.0320000
        k(   44) = (   0.4000000   0.2000000   0.0000000), wk =   0.0320000
        k(   45) = (   0.4000000   0.2000000   0.2000000), wk =   0.0320000
        k(   46) = (   0.4000000   0.2000000   0.4000000), wk =   0.0320000
        k(   47) = (   0.4000000   0.2000000  -0.4000000), wk =   0.0320000
        k(   48) = (   0.4000000   0.2000000  -0.2000000), wk =   0.0320000
        k(   49) = (   0.4000000   0.4000000   0.0000000), wk =   0.0320000
        k(   50) = (   0.4000000   0.4000000   0.2000000), wk =   0.0320000
        k(   51) = (   0.4000000   0.4000000   0.4000000), wk =   0.0320000
        k(   52) = (   0.4000000   0.4000000  -0.4000000), wk =   0.0320000
        k(   53) = (   0.4000000   0.4000000  -0.2000000), wk =   0.0320000
        k(   54) = (   0.4000000  -0.4000000   0.0000000), wk =   0.0320000
        k(   55) = (   0.4000000  -0.4000000   0.2000000), wk =   0.0320000
        k(   56) = (   0.4000000  -0.4000000   0.4000000), wk =   0.0320000
        k(   57) = (   0.4000000  -0.4000000  -0.4000000), wk =   0.0320000
        k(   58) = (   0.4000000  -0.4000000  -0.2000000), wk =   0.0320000
        k(   59) = (   0.4000000  -0.2000000   0.0000000), wk =   0.0320000
        k(   60) = (   0.4000000  -0.2000000   0.2000000), wk =   0.0320000
        k(   61) = (   0.4000000  -0.2000000   0.4000000), wk =   0.0320000
        k(   62) = (   0.4000000  -0.2000000  -0.4000000), wk =   0.0320000
        k(   63) = (   0.4000000  -0.2000000  -0.2000000), wk =   0.0320000

     Dense  grid:  3895379 G-vectors     FFT dimensions: ( 200, 200, 200)

     Smooth grid:   985619 G-vectors     FFT dimensions: ( 125, 125, 125)

     Dynamical RAM for                 wfc:     108.09 MB

     Dynamical RAM for     wfc (w. buffer):     324.28 MB

     Dynamical RAM for           str. fact:      14.86 MB

     Dynamical RAM for           local pot:       0.00 MB

     Dynamical RAM for          nlocal pot:    1078.58 MB

     Dynamical RAM for                qrad:      15.65 MB

     Dynamical RAM for          rho,v,vnew:      45.18 MB

     Dynamical RAM for               rhoin:      15.06 MB

     Dynamical RAM for            rho*nmix:     118.88 MB

     Dynamical RAM for           G-vectors:      28.80 MB

     Dynamical RAM for          h,s,v(r/c):      38.75 MB

     Dynamical RAM for          <psi|beta>:      32.22 MB

     Dynamical RAM for                 psi:     432.37 MB

     Dynamical RAM for                hpsi:     432.37 MB

     Dynamical RAM for                spsi:     432.37 MB

     Dynamical RAM for      wfcinit/wfcrot:     503.19 MB

     Dynamical RAM for           addusdens:      98.03 MB

     Dynamical RAM for          addusforce:     200.56 MB

     Dynamical RAM for         addusstress:      45.09 MB

     Estimated static dynamical RAM per process >       1.66 GB

     Estimated max dynamical RAM per process >       3.00 GB

     Estimated total dynamical RAM >     863.38 GB

     Initial potential from superposition of free atoms

     starting charge  765.41773, renormalised to  766.00000
     Starting wfcs are 1020 randomized atomic wfcs
     Checking if some PAW data can be deallocated... 
       PAW data deallocated on    2 nodes for type:  1

     total cpu time spent up to now is      206.2 secs

     Self-consistent Calculation

     iteration #  1     ecut=    40.00 Ry     beta= 0.40
     Davidson diagonalization with overlap
     ethr =  1.00E-02,  avg # of iterations =  3.0

     Threshold (ethr) on eigenvalues was too large:
     Diagonalizing with lowered threshold

     Davidson diagonalization with overlap
     ethr =  1.92E-04,  avg # of iterations =  7.7

     total cpu time spent up to now is      967.5 secs

     total energy              =  -10045.22517560 Ry
     Harris-Foulkes estimate   =  -10045.39456357 Ry
     estimated scf accuracy    <       1.50802778 Ry

     iteration #  2     ecut=    40.00 Ry     beta= 0.40
     Davidson diagonalization with overlap
     ethr =  1.97E-04,  avg # of iterations =  1.1

     total cpu time spent up to now is     1197.4 secs

     total energy              =  -10045.01352079 Ry
     Harris-Foulkes estimate   =  -10045.23229321 Ry
     estimated scf accuracy    <       0.78650878 Ry

     iteration #  3     ecut=    40.00 Ry     beta= 0.40
     Davidson diagonalization with overlap
     ethr =  1.03E-04,  avg # of iterations =  1.0

     total cpu time spent up to now is     1427.7 secs

     total energy              =  -10045.03092560 Ry
     Harris-Foulkes estimate   =  -10045.03324652 Ry
     estimated scf accuracy    <       0.00401614 Ry

     iteration #  4     ecut=    40.00 Ry     beta= 0.40
     Davidson diagonalization with overlap
     c_bands:  2 eigenvalues not converged
     ethr =  5.24E-07,  avg # of iterations = 20.6

     total cpu time spent up to now is     2154.0 secs

     total energy              =  -10045.03487719 Ry
     Harris-Foulkes estimate   =  -10045.03476332 Ry
     estimated scf accuracy    <       0.00807560 Ry

     iteration #  5     ecut=    40.00 Ry     beta= 0.40
     Davidson diagonalization with overlap
     c_bands:  2 eigenvalues not converged
     ethr =  5.24E-07,  avg # of iterations =  9.8

     total cpu time spent up to now is     2450.0 secs

     total energy              =  -10045.03264429 Ry
     Harris-Foulkes estimate   =  -10045.03488195 Ry
     estimated scf accuracy    <       0.00962710 Ry

     iteration #  6     ecut=    40.00 Ry     beta= 0.40
     Davidson diagonalization with overlap
     ethr =  5.24E-07,  avg # of iterations =  4.8

     total cpu time spent up to now is     2802.0 secs

     total energy              =  -10045.03370354 Ry
     Harris-Foulkes estimate   =  -10045.03387557 Ry
     estimated scf accuracy    <       0.00268785 Ry

     iteration #  7     ecut=    40.00 Ry     beta= 0.40
     Davidson diagonalization with overlap
     ethr =  3.51E-07,  avg # of iterations =  1.1

     total cpu time spent up to now is     3032.9 secs

     total energy              =  -10045.03369772 Ry
     Harris-Foulkes estimate   =  -10045.03374957 Ry
     estimated scf accuracy    <       0.00103539 Ry

     iteration #  8     ecut=    40.00 Ry     beta= 0.40
     Davidson diagonalization with overlap
     ethr =  1.35E-07,  avg # of iterations =  1.2

     total cpu time spent up to now is     3265.4 secs

     total energy              =  -10045.03366446 Ry
     Harris-Foulkes estimate   =  -10045.03371572 Ry
     estimated scf accuracy    <       0.00044969 Ry

     iteration #  9     ecut=    40.00 Ry     beta= 0.40
     Davidson diagonalization with overlap
     ethr =  5.87E-08,  avg # of iterations =  3.1

     total cpu time spent up to now is     3526.4 secs

     total energy              =  -10045.03370485 Ry
     Harris-Foulkes estimate   =  -10045.03370507 Ry
     estimated scf accuracy    <       0.00000320 Ry

     iteration # 10     ecut=    40.00 Ry     beta= 0.40
     Davidson diagonalization with overlap
     ethr =  4.18E-10,  avg # of iterations =  8.6

     total cpu time spent up to now is     4080.1 secs

     total energy              =  -10045.03370334 Ry
     Harris-Foulkes estimate   =  -10045.03370358 Ry
     estimated scf accuracy    <       0.00000401 Ry

     iteration # 11     ecut=    40.00 Ry     beta= 0.40
     Davidson diagonalization with overlap
     ethr =  4.18E-10,  avg # of iterations =  1.0

     total cpu time spent up to now is     4310.2 secs

     total energy              =  -10045.03370191 Ry
     Harris-Foulkes estimate   =  -10045.03370325 Ry
     estimated scf accuracy    <       0.00000361 Ry

     iteration # 12     ecut=    40.00 Ry     beta= 0.40
     Davidson diagonalization with overlap
     ethr =  4.18E-10,  avg # of iterations =  3.5

     total cpu time spent up to now is     4619.2 secs

     total energy              =  -10045.03370325 Ry
     Harris-Foulkes estimate   =  -10045.03370357 Ry
     estimated scf accuracy    <       0.00001133 Ry

     iteration # 13     ecut=    40.00 Ry     beta= 0.40
     Davidson diagonalization with overlap
     ethr =  4.18E-10,  avg # of iterations =  1.0

     total cpu time spent up to now is     4849.8 secs

     total energy              =  -10045.03370342 Ry
     Harris-Foulkes estimate   =  -10045.03370326 Ry
     estimated scf accuracy    <       0.00000804 Ry

     iteration # 14     ecut=    40.00 Ry     beta= 0.40
     Davidson diagonalization with overlap
     ethr =  4.18E-10,  avg # of iterations =  1.0

     total cpu time spent up to now is     5080.8 secs

     total energy              =  -10045.03370246 Ry
     Harris-Foulkes estimate   =  -10045.03370341 Ry
     estimated scf accuracy    <       0.00000943 Ry

     iteration # 15     ecut=    40.00 Ry     beta= 0.40
     Davidson diagonalization with overlap
     ethr =  4.18E-10,  avg # of iterations =  2.0

     total cpu time spent up to now is     5328.9 secs

     total energy              =  -10045.03370257 Ry
     Harris-Foulkes estimate   =  -10045.03370275 Ry
     estimated scf accuracy    <       0.00000093 Ry

     iteration # 16     ecut=    40.00 Ry     beta= 0.40
     Davidson diagonalization with overlap
     ethr =  1.21E-10,  avg # of iterations =  3.2

     total cpu time spent up to now is     5598.3 secs

     total energy              =  -10045.03370264 Ry
     Harris-Foulkes estimate   =  -10045.03370269 Ry
     estimated scf accuracy    <       0.00000018 Ry

     iteration # 17     ecut=    40.00 Ry     beta= 0.40
     Davidson diagonalization with overlap
     ethr =  2.38E-11,  avg # of iterations =  3.0

     total cpu time spent up to now is     5865.3 secs

     total energy              =  -10045.03370266 Ry
     Harris-Foulkes estimate   =  -10045.03370267 Ry
     estimated scf accuracy    <       0.00000005 Ry

     iteration # 18     ecut=    40.00 Ry     beta= 0.40
     Davidson diagonalization with overlap
     ethr =  6.87E-12,  avg # of iterations =  2.0

     total cpu time spent up to now is     6104.7 secs

     total energy              =  -10045.03370266 Ry
     Harris-Foulkes estimate   =  -10045.03370266 Ry
     estimated scf accuracy    <          4.6E-09 Ry

     iteration # 19     ecut=    40.00 Ry     beta= 0.40
     Davidson diagonalization with overlap
     ethr =  6.05E-13,  avg # of iterations =  4.1

     total cpu time spent up to now is     6438.5 secs

     total energy              =  -10045.03370264 Ry
     Harris-Foulkes estimate   =  -10045.03370264 Ry
     estimated scf accuracy    <          2.1E-09 Ry

     iteration # 20     ecut=    40.00 Ry     beta= 0.40
     Davidson diagonalization with overlap
     ethr =  2.70E-13,  avg # of iterations =  1.0

     total cpu time spent up to now is     6669.4 secs

     total energy              =  -10045.03370263 Ry
     Harris-Foulkes estimate   =  -10045.03370263 Ry
     estimated scf accuracy    <          8.0E-10 Ry

     iteration # 21     ecut=    40.00 Ry     beta= 0.40
     Davidson diagonalization with overlap
     ethr =  1.05E-13,  avg # of iterations =  1.0

     total cpu time spent up to now is     6899.5 secs

     total energy              =  -10045.03370263 Ry
     Harris-Foulkes estimate   =  -10045.03370263 Ry
     estimated scf accuracy    <          1.1E-09 Ry

     iteration # 22     ecut=    40.00 Ry     beta= 0.40
     Davidson diagonalization with overlap
     ethr =  1.05E-13,  avg # of iterations =  1.0

     total cpu time spent up to now is     7129.7 secs

     total energy              =  -10045.03370262 Ry
     Harris-Foulkes estimate   =  -10045.03370262 Ry
     estimated scf accuracy    <          3.8E-10 Ry

     iteration # 23     ecut=    40.00 Ry     beta= 0.40
     Davidson diagonalization with overlap
     ethr =  1.00E-13,  avg # of iterations =  3.0

     total cpu time spent up to now is     7373.4 secs

     total energy              =  -10045.03370262 Ry
     Harris-Foulkes estimate   =  -10045.03370262 Ry
     estimated scf accuracy    <          1.2E-11 Ry

     iteration # 24     ecut=    40.00 Ry     beta= 0.40
     Davidson diagonalization with overlap
     ethr =  1.00E-13,  avg # of iterations =  1.0

     total cpu time spent up to now is     7603.7 secs

     total energy              =  -10045.03370262 Ry
     Harris-Foulkes estimate   =  -10045.03370262 Ry
     estimated scf accuracy    <          1.0E-12 Ry

     iteration # 25     ecut=    40.00 Ry     beta= 0.40
     Davidson diagonalization with overlap
     ethr =  1.00E-13,  avg # of iterations =  1.0

     total cpu time spent up to now is     7832.9 secs

     End of self-consistent calculation

          k = 0.0000 0.0000 0.0000 (123065 PWs)   bands (ev):

    -3.3105  -2.8394  -2.7449  -2.7423  -2.7396  -2.7391  -2.7102  -2.3496
    -2.1896  -2.1861  -2.1849  -2.1830  -2.1829  -2.1821  -2.1806  -2.1804
    -2.1766  -2.1717  -2.0994  -1.7268  -1.6306  -1.6261  -1.6237  -1.6236
    -1.6210  -1.6178  -1.5642  -1.1606  -1.0744  -1.0690  -1.0686  -1.0638
    -1.0318  -0.7660  -0.5454  -0.5379  -0.5243  -0.5225  -0.5221  -0.5212
    -0.5208  -0.5203  -0.5197  -0.5194  -0.5190  -0.5188  -0.5186  -0.5176
    -0.5170  -0.5147  -0.5129  -0.5129  -0.5120  -0.5040  -0.4872  -0.4855
    -0.3586  -0.1215   0.0064   0.0079   0.0268   0.0288   0.0290   0.0296
     0.0306   0.0310   0.0313   0.0316   0.0328   0.0336   0.0336   0.0342
     0.0343   0.0346   0.0347   0.0394   0.0448   0.0493   0.0646   0.0709
     0.2944   1.0100   1.1094   1.1115   1.1212   1.1277   1.1282   1.1301
     1.1307   1.1390   1.1439   1.1459   1.2058   1.4708   1.6209   1.6218
     1.6574   1.6618   1.6632   1.6639   1.6648   1.6670   1.6674   1.6678
     1.6684   1.6692   1.6702   1.6704   1.6713   1.6713   1.6727   1.6729
     1.6732   1.6734   1.6750   1.6758   1.6759   1.6820   1.6843   1.7041
     1.7202   1.7283   1.8657   2.0979   2.1719   2.1741   2.1938   2.2022
     2.2025   2.2028   2.2039   2.2053   2.2056   2.2058   2.2061   2.2061
     2.2069   2.2080   2.2086   2.2110   2.2124   2.2125   2.2144   2.2381
     2.2553   2.2620   2.4007   2.6416   2.7039   2.7060   2.7324   2.7379
     2.7422   2.7428   2.7428   2.7444   2.7454   2.7468   2.7471   2.7471
     2.7477   2.7485   2.7488   2.7513   2.7513   2.7521   2.7567   2.7873
     2.8085   2.8124   2.9904   3.1906   3.2161   3.2167   3.2274   3.3436
     3.3930   3.3932   3.4601   3.7124   3.7697   3.7749   3.7957   3.8120
     3.8132   3.8142   3.8160   3.8160   3.8178   3.8179   3.8180   3.8196
     3.8200   3.8231   3.8234   3.8240   3.8267   3.8273   3.8294   3.8647
     3.8728   3.8756   3.9743   4.1741   4.1829   4.2204   4.2391   4.2399
     4.2412   4.2420   4.2423   4.2434   4.2435   4.2440   4.2450   4.2451
     4.2455   4.2462   4.2462   4.2464   4.2502   4.2510   4.2542   4.2546
     4.2888   4.3264   4.3372   4.3562   4.4649   4.4654   4.4664   4.4721
     4.4742   4.4751   4.4751   4.4755   4.4756   4.4769   4.4775   4.4777
     4.4778   4.4779   4.4795   4.4796   4.4817   4.4901   4.5016   4.5148
     4.5218   4.5236   4.8617   4.8693   4.8726   4.9394   5.3399   5.3493
     5.3585   5.3708   5.3730   5.3732   5.3737   5.3766   5.3801   5.4084
     5.4125   5.4182   5.8234   5.8243   5.8407   5.8677   5.8868   5.8872
     5.8896   5.8899   5.8945   5.8949   5.8993   5.9054   5.9135   5.9241
     5.9471   5.9493   5.9556   5.9574   5.9580   5.9601   5.9609   5.9612
     5.9613   5.9625   5.9630   5.9631   5.9647   5.9647   5.9656   5.9693
     5.9940   5.9963   6.0324   6.0589   6.0602   6.0690   6.1466   6.1633
     6.2190   6.3899   6.3952   6.3996   6.4013   6.4116   6.4148   6.4187
     6.4188   6.4315   6.4571   6.4613   6.4655   6.6059   6.6901   6.6924
     6.6925   6.6954   6.6962   6.6967   6.6983   6.6986   6.7119   6.7263
     6.7910   6.8678   6.8699   6.8912   6.9201   6.9239   6.9247   6.9249
     6.9268   6.9301   6.9302   6.9396   6.9427   6.9470   6.9750   6.9797
     6.9835   6.9943   6.9963   7.0006   7.0014   7.0015   7.0059   7.0061
     7.0067   7.0074   7.0076   7.0095   7.0098   7.0120   7.0202   7.0332
     7.0388   7.0945   7.1062   7.1094   7.1104   7.2503   7.3308   7.3316
     7.3353   7.3355   7.3376   7.3386   7.3404   7.3407   7.3543   7.3594
     7.3778   7.3786   7.4062   7.4265   7.4286   7.4294   7.4365   7.4371
     7.4382   7.4382   7.4399   7.4399   7.4407   7.4436   7.4439   7.4446
     7.4479   7.4498   7.4500   7.4742   7.4879   7.5718   7.5995   7.6039
     7.6517   7.9449   7.9546   7.9592   7.9641   7.9660   7.9742   8.4513
     8.5211   8.5484   8.5608   8.5739   8.5742   8.5785   8.5809   8.5810
     8.5820   8.5825   8.5836   8.5837   8.5838   8.5848   8.5856   8.5861
     8.5931   8.6174   8.6182   8.6249   8.6328   8.6394   8.6479   8.7081
     8.7949   8.7961   8.7987   8.7988   8.8245   8.8362   8.8635   8.8639
     8.8704   8.8785   8.8816   8.8835   8.8848   8.8853   8.8854   8.8859
     8.8864   8.8871   8.8876   8.8879   8.8912   8.8943   8.8958   8.8973
     8.9008   8.9059   8.9231   8.9266

     occupation numbers 
     1.0000   1.0000   1.0000   1.0000   1.0000   1.0000   1.0000   1.0000
     1.0000   1.0000   1.0000   1.0000   1.0000   1.0000   1.0000   1.0000
     1.0000   1.0000   1.0000   1.0000   1.0000   1.0000   1.0000   1.0000
     1.0000   1.0000   1.0000   1.0000   1.0000   1.0000   1.0000   1.0000
     1.0000   1.0000   1.0000   1.0000   1.0000   1.0000   1.0000   1.0000
     1.0000   1.0000   1.0000   1.0000   1.0000   1.0000   1.0000   1.0000
     1.0000   1.0000   1.0000   1.0000   1.0000   1.0000   1.0000   1.0000
     1.0000   1.0000   1.0000   1.0000   1.0000   1.0000   1.0000   1.0000
     1.0000   1.0000   1.0000   1.0000   1.0000   1.0000   1.0000   1.0000
     1.0000   1.0000   1.0000   1.0000   1.0000   1.0000   1.0000   1.0000
     1.0000   1.0000   1.0000   1.0000   1.0000   1.0000   1.0000   1.0000
     1.0000   1.0000   1.0000   1.0000   1.0000   1.0000   1.0000   1.0000
     1.0000   1.0000   1.0000   1.0000   1.0000   1.0000   1.0000   1.0000
     1.0000   1.0000   1.0000   1.0000   1.0000   1.0000   1.0000   1.0000
     1.0000   1.0000   1.0000   1.0000   1.0000   1.0000   1.0000   1.0000
     1.0000   1.0000   1.0000   1.0000   1.0000   1.0000   1.0000   1.0000
     1.0000   1.0000   1.0000   1.0000   1.0000   1.0000   1.0000   1.0000
     1.0000   1.0000   1.0000   1.0000   1.0000   1.0000   1.0000   1.0000
     1.0000   1.0000   1.0000   1.0000   1.0000   1.0000   1.0000   1.0000
     1.0000   1.0000   1.0000   1.0000   1.0000   1.0000   1.0000   1.0000
     1.0000   1.0000   1.0000   1.0000   1.0000   1.0000   1.0000   1.0000
     1.0000   1.0000   1.0000   1.0000   1.0000   1.0000   1.0000   1.0000
     1.0000   1.0000   1.0000   1.0000   1.0000   1.0000   1.0000   1.0000
     1.0000   1.0000   1.0000   1.0000   1.0000   1.0000   1.0000   1.0000
     1.0000   1.0000   1.0000   1.0000   1.0000   1.0000   1.0000   1.0000
     1.0000   1.0000   1.0000   1.0000   1.0000   1.0000   1.0000   1.0000
     1.0000   1.0000   1.0000   1.0000   1.0000   1.0000   1.0000   1.0000
     1.0000   1.0000   1.0000   1.0000   1.0000   1.0000   1.0000   1.0000
     1.0000   1.0000   1.0000   1.0000   1.0000   1.0000   1.0000   1.0000
     1.0000   1.0000   1.0000   1.0000   1.0000   1.0000   1.0000   1.0000
     1.0000   1.0000   1.0000   1.0000   1.0000   1.0000   1.0000   1.0000
     1.0000   1.0000   1.0000   1.0000   1.0000   1.0000   1.0000   1.0000
     1.0000   1.0000   1.0000   1.0000   1.0000   1.0000   1.0000   1.0000
     1.0000   1.0000   1.0000   1.0000   1.0000   1.0000   1.0001   1.0001
     1.0001   1.0001   1.0001   1.0001   1.0001   1.0001   1.0001   1.0001
     1.0001   1.0001   1.0001   1.0001   1.0001   1.0001   1.0001   1.0001
     1.0001   1.0001   1.0001   1.0001   1.0001   1.0001   1.0001   1.0001
     1.0001   1.0001   1.0002   1.0002   1.0003   1.0003   1.0005   1.0006
     1.0009   1.0031   1.0032   1.0033   1.0033   1.0035   1.0036   1.0037
     1.0037   1.0040   1.0047   1.0048   1.0049   1.0107   1.0158   1.0159
     1.0159   1.0161   1.0162   1.0162   1.0163   1.0163   1.0173   1.0183
     1.0232   1.0290   1.0291   1.0306   1.0324   1.0326   1.0326   1.0327
     1.0328   1.0329   1.0329   1.0334   1.0336   1.0338   1.0348   1.0350
     1.0351   1.0353   1.0353   1.0354   1.0354   1.0354   1.0354   1.0354
     1.0354   1.0354   1.0354   1.0354   1.0354   1.0355   1.0354   1.0353
     1.0352   1.0322   1.0311   1.0308   1.0307   0.9979   0.9593   0.9588
     0.9566   0.9565   0.9553   0.9547   0.9535   0.9534   0.9448   0.9415
     0.9288   0.9282   0.9074   0.8906   0.8889   0.8882   0.8820   0.8815
     0.8805   0.8805   0.8790   0.8790   0.8783   0.8758   0.8755   0.8748
     0.8719   0.8701   0.8700   0.8469   0.8333   0.7392   0.7048   0.6991
     0.6364   0.2403   0.2289   0.2236   0.2180   0.2159   0.2067  -0.0349
    -0.0349  -0.0340  -0.0334  -0.0327  -0.0327  -0.0324  -0.0323  -0.0323
    -0.0322  -0.0322  -0.0321  -0.0321  -0.0321  -0.0321  -0.0320  -0.0320
    -0.0316  -0.0300  -0.0299  -0.0295  -0.0289  -0.0284  -0.0278  -0.0232
    -0.0168  -0.0167  -0.0165  -0.0165  -0.0148  -0.0140  -0.0124  -0.0123
    -0.0120  -0.0115  -0.0113  -0.0112  -0.0112  -0.0111  -0.0111  -0.0111
    -0.0111  -0.0110  -0.0110  -0.0110  -0.0108  -0.0107  -0.0106  -0.0105
    -0.0103  -0.0101  -0.0092  -0.0090

          k = 0.0000 0.0000 0.2000 (123202 PWs)   bands (ev):

    -3.2883  -2.9580  -2.7915  -2.7225  -2.7168  -2.6933  -2.5152  -2.4403
    -2.3869  -2.3809  -2.3574  -2.2187  -2.1590  -2.1580  -2.1294  -1.9931
    -1.9405  -1.9346  -1.9107  -1.8603  -1.8245  -1.8237  -1.7857  -1.5085
    -1.4330  -1.3799  -1.3793  -1.3500  -1.1197  -1.0524  -1.0417  -1.0237
    -0.9781  -0.9412  -0.9355  -0.9125  -0.7710  -0.7209  -0.7101  -0.6897
    -0.6291  -0.5692  -0.5077  -0.4982  -0.4978  -0.4956  -0.4873  -0.4797
    -0.4496  -0.4169  -0.3846  -0.3836  -0.3521  -0.3080  -0.2794  -0.2683
    -0.2491  -0.2112  -0.1760  -0.1676  -0.1672  -0.1650  -0.1560  -0.1463
    -0.0924  -0.0723  -0.0589  -0.0532   0.0080   0.2118   0.2630   0.2720
     0.2724   0.2746   0.2833   0.2917   0.3577   0.4630   0.4943   0.4954
     0.5572   0.6757   0.7088   0.7193   0.7535   1.0181   1.0976   1.1509
     1.1548   1.1701   1.2004   1.2468   1.2561   1.2566   1.2588   1.2667
     1.2739   1.3262   1.4349   1.4767   1.4818   1.4966   1.5415   1.5628
     1.5766   1.5817   1.5827   1.5911   1.6122   1.6209   1.6824   1.6851
     1.6968   1.7314   1.8685   1.9101   1.9161   1.9307   1.9961   2.0059
     2.0213   2.0256   2.0599   2.0971   2.1141   2.1239   2.1240   2.1247
     2.1252   2.1280   2.1348   2.1413   2.1613   2.1775   2.2107   2.2136
     2.2220   2.2280   2.2325   2.2471   2.2597   2.3043   2.3503   2.4388
     2.4393   2.4555   2.4786   2.5222   2.5356   2.5455   2.5520   2.5566
     2.5721   2.5865   2.6489   2.8250   2.8544   2.8662   2.8711   2.8820
     2.8846   2.8957   2.9124   2.9630   2.9668   2.9760   2.9826   2.9871
     3.0033   3.0191   3.0928   3.1669   3.1990   3.2090   3.2495   3.3668
     3.4012   3.4030   3.4067   3.4099   3.4249   3.4338   3.4694   3.6519
     3.7154   3.7241   3.7277   3.7285   3.7303   3.7386   3.7442   3.7617
     3.7628   3.7882   3.7928   3.8189   3.8193   3.8376   3.8397   3.8411
     3.8610   3.8626   3.8936   3.9204   3.9245   3.9332   3.9389   3.9434
     3.9608   3.9781   4.0271   4.1297   4.1326   4.1477   4.1508   4.1523
     4.1816   4.1841   4.2281   4.2645   4.2676   4.2852   4.3096   4.4322
     4.4632   4.4696   4.4799   4.5058   4.5729   4.5920   4.6078   4.6106
     4.6115   4.6330   4.6334   4.6840   4.7881   4.8099   4.8178   4.8240
     4.8282   4.8408   4.8469   4.8860   4.8993   4.9000   4.9370   4.9714
     4.9768   4.9800   5.0190   5.0222   5.0281   5.0281   5.0310   5.0397
     5.0479   5.1882   5.1925   5.2425   5.3081   5.3455   5.3549   5.3808
     5.3808   5.3921   5.4163   5.4190   5.4543   5.4925   5.4941   5.5238
     5.5376   5.5379   5.5554   5.5587   5.5599   5.5740   5.5788   5.6112
     5.6217   5.6583   5.6921   5.6958   5.7344   5.7455   5.8362   5.8404
     5.8584   5.8847   6.0977   6.1073   6.1358   6.1377   6.1757   6.1848
     6.3227   6.3581   6.3701   6.3868   6.3956   6.3978   6.3994   6.4036
     6.4059   6.4067   6.4190   6.4215   6.4232   6.4255   6.4353   6.4483
     6.4679   6.4733   6.4824   6.4936   6.5084   6.5101   6.5262   6.5319
     6.5343   6.5430   6.5628   6.5665   6.5983   6.6136   6.6199   6.6241
     6.6543   6.7020   6.7149   6.7291   6.7556   6.8105   6.8106   6.8254
     6.8332   6.8547   6.8654   6.8673   6.8837   6.9248   6.9386   6.9391
     6.9550   6.9699   6.9727   7.0113   7.0332   7.0382   7.0590   7.0639
     7.0671   7.0699   7.0714   7.0724   7.0905   7.0968   7.1096   7.1296
     7.1374   7.1688   7.2139   7.2229   7.2290   7.2403   7.2499   7.2510
     7.2544   7.2998   7.3035   7.3282   7.3427   7.3445   7.3742   7.3875
     7.4058   7.5106   7.5426   7.5571   7.5829   7.6115   7.6241   7.6344
     7.6449   7.6494   7.6496   7.6573   7.6595   7.6666   7.6792   7.7103
     7.7173   7.7255   7.7405   7.7429   7.7909   7.7990   7.8626   7.8646
     7.8991   7.9186   7.9301   7.9467   7.9685   7.9787   7.9806   7.9819
     8.0091   8.0213   8.0566   8.1652   8.1722   8.1748   8.1797   8.1857
     8.2085   8.2188   8.2274   8.4568   8.4874   8.5019   8.5266   8.5799
     8.5925   8.6048   8.6128   8.6201   8.6482   8.6517   8.6729   8.6854
     8.6929   8.7045   8.7570   8.8769   8.9176   8.9240   8.9971   9.0097
     9.0166   9.0229   9.0242   9.0264   9.0322   9.0385   9.0767   9.1064
     9.1273   9.1315   9.1391   9.1578   9.1616   9.1733   9.1849   9.2028
     9.2109   9.2140   9.2198   9.2210

     occupation numbers 
     1.0000   1.0000   1.0000   1.0000   1.0000   1.0000   1.0000   1.0000
     1.0000   1.0000   1.0000   1.0000   1.0000   1.0000   1.0000   1.0000
     1.0000   1.0000   1.0000   1.0000   1.0000   1.0000   1.0000   1.0000
     1.0000   1.0000   1.0000   1.0000   1.0000   1.0000   1.0000   1.0000
     1.0000   1.0000   1.0000   1.0000   1.0000   1.0000   1.0000   1.0000
     1.0000   1.0000   1.0000   1.0000   1.0000   1.0000   1.0000   1.0000
     1.0000   1.0000   1.0000   1.0000   1.0000   1.0000   1.0000   1.0000
     1.0000   1.0000   1.0000   1.0000   1.0000   1.0000   1.0000   1.0000
     1.0000   1.0000   1.0000   1.0000   1.0000   1.0000   1.0000   1.0000
     1.0000   1.0000   1.0000   1.0000   1.0000   1.0000   1.0000   1.0000
     1.0000   1.0000   1.0000   1.0000   1.0000   1.0000   1.0000   1.0000
     1.0000   1.0000   1.0000   1.0000   1.0000   1.0000   1.0000   1.0000
     1.0000   1.0000   1.0000   1.0000   1.0000   1.0000   1.0000   1.0000
     1.0000   1.0000   1.0000   1.0000   1.0000   1.0000   1.0000   1.0000
     1.0000   1.0000   1.0000   1.0000   1.0000   1.0000   1.0000   1.0000
     1.0000   1.0000   1.0000   1.0000   1.0000   1.0000   1.0000   1.0000
     1.0000   1.0000   1.0000   1.0000   1.0000   1.0000   1.0000   1.0000
     1.0000   1.0000   1.0000   1.0000   1.0000   1.0000   1.0000   1.0000
     1.0000   1.0000   1.0000   1.0000   1.0000   1.0000   1.0000   1.0000
     1.0000   1.0000   1.0000   1.0000   1.0000   1.0000   1.0000   1.0000
     1.0000   1.0000   1.0000   1.0000   1.0000   1.0000   1.0000   1.0000
[...]
     atom   74 type  1   force =     0.00000006   -0.00000002   -0.00000006
     atom   75 type  1   force =     0.00000006   -0.00000000   -0.00000003
     atom   76 type  1   force =    -0.00000001   -0.00000002    0.00000000
     atom   77 type  1   force =     0.00000003   -0.00000000   -0.00000006
     atom   78 type  1   force =    -0.00000004   -0.00000001   -0.00000005
     atom   79 type  1   force =    -0.00000008    0.00000000    0.00000003
     atom   80 type  1   force =    -0.00000005   -0.00000003   -0.00000001
     atom   81 type  1   force =     0.00000005    0.00000005   -0.00000003
     atom   82 type  1   force =    -0.00000000    0.00000002    0.00000000
     atom   83 type  1   force =     0.00000001    0.00000001    0.00000001
     atom   84 type  1   force =    -0.00000001    0.00000001    0.00000001
     atom   85 type  1   force =     0.00000005    0.00000006    0.00000006
     atom   86 type  1   force =     0.00000006    0.00000003    0.00000006
     atom   87 type  1   force =     0.00000002    0.00000007    0.00000005
     atom   88 type  1   force =     0.00000005    0.00000005    0.00000001
     atom   89 type  1   force =     0.00000004    0.00000004    0.00000001
     atom   90 type  1   force =     0.00000007    0.00000003   -0.00000006
     atom   91 type  1   force =     0.00000003    0.00000008   -0.00000005
     atom   92 type  1   force =     0.00000001    0.00000002   -0.00000000
     atom   93 type  1   force =     0.00000005    0.00000008   -0.00000004
     atom   94 type  1   force =     0.00000001    0.00000004   -0.00000001
     atom   95 type  1   force =     0.00000003    0.00000002   -0.00000001
     atom   96 type  1   force =     0.00000006    0.00000001   -0.00000002
     atom   97 type  1   force =     0.00000007   -0.00000003   -0.00000002
     atom   98 type  1   force =     0.00000006    0.00000004    0.00000002
     atom   99 type  1   force =     0.00000004   -0.00000001    0.00000004
     atom  100 type  1   force =     0.00000003    0.00000004    0.00000006
     atom  101 type  1   force =     0.00000002   -0.00000002    0.00000005
     atom  102 type  1   force =     0.00000003    0.00000003    0.00000004
     atom  103 type  1   force =     0.00000003   -0.00000001    0.00000004
     atom  104 type  1   force =     0.00000001    0.00000003    0.00000002
     atom  105 type  1   force =     0.00000001   -0.00000001    0.00000001
     atom  106 type  1   force =     0.00000002    0.00000003   -0.00000002
     atom  107 type  1   force =     0.00000002   -0.00000002   -0.00000003
     atom  108 type  1   force =     0.00000005    0.00000004   -0.00000006
     atom  109 type  1   force =     0.00000003   -0.00000003   -0.00000003
     atom  110 type  1   force =     0.00000007    0.00000004   -0.00000004
     atom  111 type  1   force =     0.00000007   -0.00000002   -0.00000006
     atom  112 type  1   force =     0.00000001   -0.00000000   -0.00000001
     atom  113 type  1   force =    -0.00000001   -0.00000006   -0.00000002
     atom  114 type  1   force =     0.00000004   -0.00000006    0.00000002
     atom  115 type  1   force =    -0.00000006    0.00000001    0.00000001
     atom  116 type  1   force =     0.00000002   -0.00000003    0.00000007
     atom  117 type  1   force =     0.00000002   -0.00000004    0.00000009
     atom  118 type  1   force =     0.00000001   -0.00000003    0.00000005
     atom  119 type  1   force =     0.00000005   -0.00000006    0.00000004
     atom  120 type  1   force =     0.00000003   -0.00000004    0.00000000
     atom  121 type  1   force =     0.00000003   -0.00000002    0.00000000
     atom  122 type  1   force =     0.00000001   -0.00000003   -0.00000003
     atom  123 type  1   force =     0.00000005   -0.00000006   -0.00000003
     atom  124 type  1   force =     0.00000003   -0.00000004   -0.00000005
     atom  125 type  1   force =     0.00000002   -0.00000005   -0.00000007
     atom  126 type  1   force =     0.00000004   -0.00000007   -0.00000005
     atom  127 type  1   force =    -0.00000005   -0.00000001   -0.00000002
     atom  128 type  1   force =     0.00000000   -0.00000002   -0.00000001
     atom  129 type  1   force =     0.00000002    0.00000005   -0.00000002
     atom  130 type  1   force =     0.00000003   -0.00000001    0.00000007
     atom  131 type  1   force =     0.00000001    0.00000004    0.00000006
     atom  132 type  1   force =     0.00000003   -0.00000002    0.00000011
     atom  133 type  1   force =    -0.00000001    0.00000000    0.00000008
     atom  134 type  1   force =    -0.00000004   -0.00000002    0.00000006
     atom  135 type  1   force =     0.00000002   -0.00000001    0.00000007
     atom  136 type  1   force =     0.00000001   -0.00000000    0.00000000
     atom  137 type  1   force =    -0.00000004   -0.00000001    0.00000001
     atom  138 type  1   force =    -0.00000003   -0.00000000   -0.00000006
     atom  139 type  1   force =     0.00000002   -0.00000001   -0.00000006
     atom  140 type  1   force =     0.00000001   -0.00000001   -0.00000011
     atom  141 type  1   force =    -0.00000001    0.00000002   -0.00000007
     atom  142 type  1   force =     0.00000002    0.00000000   -0.00000007
     atom  143 type  1   force =     0.00000002    0.00000006   -0.00000007
     atom  144 type  1   force =     0.00000003    0.00000008   -0.00000003
     atom  145 type  1   force =    -0.00000004    0.00000007   -0.00000002
     atom  146 type  1   force =    -0.00000001    0.00000006    0.00000003
     atom  147 type  1   force =     0.00000004    0.00000007    0.00000000
     atom  148 type  1   force =     0.00000003    0.00000004    0.00000007
     atom  149 type  1   force =    -0.00000002    0.00000004    0.00000003
     atom  150 type  1   force =    -0.00000003    0.00000002    0.00000005
     atom  151 type  1   force =     0.00000001    0.00000003    0.00000004
     atom  152 type  1   force =     0.00000001    0.00000001    0.00000001
     atom  153 type  1   force =    -0.00000002    0.00000002    0.00000001
     atom  154 type  1   force =    -0.00000003    0.00000002   -0.00000003
     atom  155 type  1   force =     0.00000001    0.00000004   -0.00000002
     atom  156 type  1   force =     0.00000004    0.00000004   -0.00000005
     atom  157 type  1   force =    -0.00000003    0.00000004   -0.00000002
     atom  158 type  1   force =    -0.00000002    0.00000006   -0.00000004
     atom  159 type  1   force =     0.00000004    0.00000007   -0.00000002
     atom  160 type  1   force =     0.00000003    0.00000003   -0.00000002
     atom  161 type  1   force =    -0.00000004   -0.00000004   -0.00000002
     atom  162 type  1   force =    -0.00000003    0.00000002   -0.00000001
     atom  163 type  1   force =     0.00000001   -0.00000004   -0.00000001
     atom  164 type  1   force =     0.00000001    0.00000002    0.00000003
     atom  165 type  1   force =    -0.00000003   -0.00000004    0.00000002
     atom  166 type  1   force =    -0.00000002    0.00000000    0.00000003
     atom  167 type  1   force =    -0.00000001   -0.00000002    0.00000003
     atom  168 type  1   force =    -0.00000000    0.00000000    0.00000001
     atom  169 type  1   force =    -0.00000003   -0.00000002    0.00000001
     atom  170 type  1   force =    -0.00000003   -0.00000000   -0.00000001
     atom  171 type  1   force =    -0.00000001   -0.00000003   -0.00000001
     atom  172 type  1   force =     0.00000000    0.00000002   -0.00000002
     atom  173 type  1   force =    -0.00000004   -0.00000003   -0.00000001
     atom  174 type  1   force =    -0.00000005    0.00000001   -0.00000001
     atom  175 type  1   force =     0.00000001   -0.00000004   -0.00000002
     atom  176 type  1   force =     0.00000001   -0.00000009   -0.00000002
     atom  177 type  1   force =     0.00000002   -0.00000008   -0.00000000
     atom  178 type  1   force =    -0.00000002   -0.00000006    0.00000000
     atom  179 type  1   force =     0.00000001   -0.00000007    0.00000005
     atom  180 type  1   force =    -0.00000000   -0.00000004    0.00000005
     atom  181 type  1   force =    -0.00000002   -0.00000001    0.00000008
     atom  182 type  1   force =    -0.00000003   -0.00000001    0.00000004
     atom  183 type  1   force =     0.00000001    0.00000000    0.00000006
     atom  184 type  1   force =    -0.00000001   -0.00000001    0.00000000
     atom  185 type  1   force =    -0.00000003    0.00000001   -0.00000000
     atom  186 type  1   force =    -0.00000003   -0.00000002   -0.00000003
     atom  187 type  1   force =     0.00000000   -0.00000000   -0.00000005
     atom  188 type  1   force =    -0.00000001   -0.00000006   -0.00000003
     atom  189 type  1   force =    -0.00000002   -0.00000003   -0.00000007
     atom  190 type  1   force =    -0.00000003   -0.00000008   -0.00000002
     atom  191 type  1   force =    -0.00000000   -0.00000008   -0.00000006
     atom  192 type  1   force =     0.00000012   -0.00000001   -0.00000000
     atom  193 type  1   force =     0.00000009   -0.00000006   -0.00000001
     atom  194 type  1   force =     0.00000007   -0.00000001   -0.00000005
     atom  195 type  1   force =     0.00000005   -0.00000001    0.00000002
     atom  196 type  1   force =    -0.00000001   -0.00000001    0.00000002
     atom  197 type  1   force =     0.00000001   -0.00000000   -0.00000004
     atom  198 type  1   force =    -0.00000006   -0.00000001   -0.00000001
     atom  199 type  1   force =    -0.00000006    0.00000001    0.00000004
     atom  200 type  1   force =    -0.00000009   -0.00000001    0.00000001
     atom  201 type  1   force =    -0.00000007    0.00000005    0.00000001
     atom  202 type  1   force =    -0.00000007    0.00000000    0.00000002
     atom  203 type  1   force =    -0.00000005    0.00000001   -0.00000003
     atom  204 type  1   force =    -0.00000000    0.00000001   -0.00000004
     atom  205 type  1   force =    -0.00000000    0.00000000    0.00000003
     atom  206 type  1   force =     0.00000007   -0.00000000    0.00000005
     atom  207 type  1   force =     0.00000004    0.00000001   -0.00000002
     atom  208 type  1   force =    -0.00000000    0.00000002   -0.00000001
     atom  209 type  1   force =    -0.00000004   -0.00000000    0.00000000
     atom  210 type  1   force =     0.00000002   -0.00000004    0.00000000
     atom  211 type  1   force =    -0.00000005    0.00000005    0.00000002
     atom  212 type  1   force =    -0.00000002    0.00000003    0.00000004
     atom  213 type  1   force =    -0.00000002    0.00000003    0.00000007
     atom  214 type  1   force =    -0.00000002    0.00000007    0.00000004
     atom  215 type  1   force =    -0.00000001    0.00000003    0.00000004
     atom  216 type  1   force =    -0.00000003    0.00000004    0.00000001
     atom  217 type  1   force =    -0.00000001    0.00000004    0.00000001
     atom  218 type  1   force =    -0.00000003    0.00000006   -0.00000002
     atom  219 type  1   force =    -0.00000001    0.00000003   -0.00000003
     atom  220 type  1   force =    -0.00000003    0.00000003   -0.00000004
     atom  221 type  1   force =    -0.00000003    0.00000002   -0.00000008
     atom  222 type  1   force =     0.00000002   -0.00000005   -0.00000001
     atom  223 type  1   force =    -0.00000007    0.00000004   -0.00000003
     atom  224 type  1   force =    -0.00000008    0.00000002   -0.00000001
     atom  225 type  1   force =    -0.00000006    0.00000001    0.00000000
     atom  226 type  1   force =    -0.00000005    0.00000002    0.00000005
     atom  227 type  1   force =    -0.00000004   -0.00000003    0.00000001
     atom  228 type  1   force =    -0.00000003    0.00000001    0.00000003
     atom  229 type  1   force =    -0.00000001   -0.00000003    0.00000005
     atom  230 type  1   force =     0.00000001    0.00000000    0.00000005
     atom  231 type  1   force =    -0.00000002   -0.00000003    0.00000003
     atom  232 type  1   force =    -0.00000001   -0.00000001    0.00000001
     atom  233 type  1   force =     0.00000001   -0.00000005    0.00000001
     atom  234 type  1   force =    -0.00000000   -0.00000000   -0.00000005
     atom  235 type  1   force =    -0.00000002   -0.00000004   -0.00000003
     atom  236 type  1   force =    -0.00000004    0.00000000   -0.00000004
     atom  237 type  1   force =    -0.00000002   -0.00000002   -0.00000006
     atom  238 type  1   force =    -0.00000006    0.00000002   -0.00000004
     atom  239 type  1   force =    -0.00000006   -0.00000002   -0.00000001
     atom  240 type  1   force =    -0.00000000   -0.00000003   -0.00000001
     atom  241 type  1   force =     0.00000006    0.00000005    0.00000000
     atom  242 type  1   force =     0.00000000    0.00000003   -0.00000000
     atom  243 type  1   force =     0.00000005   -0.00000001    0.00000000
     atom  244 type  1   force =    -0.00000002   -0.00000003    0.00000003
     atom  245 type  1   force =     0.00000000   -0.00000000   -0.00000004
     atom  246 type  1   force =    -0.00000001   -0.00000006    0.00000002
     atom  247 type  1   force =    -0.00000007   -0.00000001    0.00000003
     atom  248 type  1   force =    -0.00000004   -0.00000002    0.00000001
     atom  249 type  1   force =    -0.00000006   -0.00000005    0.00000000
     atom  250 type  1   force =    -0.00000001   -0.00000006   -0.00000002
     atom  251 type  1   force =    -0.00000006   -0.00000001   -0.00000004
     atom  252 type  1   force =    -0.00000003   -0.00000004   -0.00000003
     atom  253 type  1   force =     0.00000000   -0.00000000    0.00000003
     atom  254 type  1   force =    -0.00000001    0.00000003    0.00000001
     atom  255 type  1   force =     0.00000005   -0.00000002    0.00000000

     Total force =     0.003947     Total SCF correction =     0.000001


     Computing stress (Cartesian axis) and pressure

          total   stress  (Ry/bohr**3)                   (kbar)     P=  -11.34
  -0.00007668  -0.00000017   0.00000000        -11.28     -0.03      0.00
  -0.00000017  -0.00007668  -0.00000000         -0.03    -11.28     -0.00
   0.00000000  -0.00000000  -0.00007794          0.00     -0.00    -11.47

     kinetic stress (kbar)   1431.75      0.03      0.00
                                0.03   1431.75     -0.00
                                0.00     -0.00   1431.67

     local   stress (kbar)    618.68      4.42     -0.00
                                4.42    618.68     -0.00
                               -0.00     -0.00    613.83

     nonloc. stress (kbar)   1037.16      0.06     -0.00
                                0.06   1037.16      0.00
                               -0.00      0.00   1037.01

     hartree stress (kbar)      4.56     -1.73     -0.00
                               -1.73      4.56     -0.00
                               -0.00     -0.00      6.57

     exc-cor stress (kbar)    511.48     -0.00      0.00
                               -0.00    511.48      0.00
                                0.00      0.00    511.48

     corecor stress (kbar)  -1279.83     -0.01     -0.00
                               -0.01  -1279.83     -0.00
                               -0.00     -0.00  -1279.80

     ewald   stress (kbar)  -2335.09     -2.79     -0.00
                               -2.79  -2335.09     -0.00
                               -0.00     -0.00  -2332.22

     hubbard stress (kbar)      0.00      0.00      0.00
                                0.00      0.00      0.00
                                0.00      0.00      0.00

     london  stress (kbar)      0.00      0.00      0.00
                                0.00      0.00      0.00
                                0.00      0.00      0.00

     DFT-D3  stress (kbar)      0.00      0.00      0.00
                                0.00      0.00      0.00
                                0.00      0.00      0.00

     XDM     stress (kbar)      0.00      0.00      0.00
                                0.00      0.00      0.00
                                0.00      0.00      0.00

     dft-nl  stress (kbar)      0.00      0.00      0.00
                                0.00      0.00      0.00
                                0.00      0.00      0.00

     TS-vdW  stress (kbar)      0.00      0.00      0.00
                                0.00      0.00      0.00
                                0.00      0.00      0.00



     Writing output data file aiida.save/
 
     init_run     :    201.84s CPU    204.19s WALL (       1 calls)
     electrons    :   7567.34s CPU   7627.20s WALL (       1 calls)
     forces       :     98.38s CPU     99.38s WALL (       1 calls)
     stress       :   1179.76s CPU   1181.24s WALL (       1 calls)

     Called by init_run:
     wfcinit      :    190.48s CPU    192.43s WALL (       1 calls)
     wfcinit:atom :      0.27s CPU      0.59s WALL (       2 calls)
     wfcinit:wfcr :    187.92s CPU    188.83s WALL (       2 calls)
     potinit      :      2.19s CPU      2.39s WALL (       1 calls)
     hinit0       :      2.67s CPU      2.74s WALL (       1 calls)

     Called by electrons:
     c_bands      :   6563.14s CPU   6612.69s WALL (      26 calls)
     sum_band     :    921.20s CPU    925.48s WALL (      26 calls)
     v_of_rho     :     38.79s CPU     40.37s WALL (      26 calls)
     v_h          :      2.61s CPU      2.61s WALL (      26 calls)
     v_xc         :     38.14s CPU     39.78s WALL (      28 calls)
     newd         :      9.01s CPU     10.89s WALL (      26 calls)
     PAW_pot      :      4.78s CPU      5.32s WALL (      26 calls)
     mix_rho      :     24.70s CPU     26.57s WALL (      26 calls)

     Called by c_bands:
     init_us_2    :     79.89s CPU     80.44s WALL (     110 calls)
     cegterg      :   5754.76s CPU   5802.29s WALL (      53 calls)

     Called by sum_band:
     sum_band:bec :      1.42s CPU      1.42s WALL (      52 calls)
     addusdens    :      6.93s CPU      9.49s WALL (      26 calls)

     Called by *egterg:
     h_psi        :   3677.08s CPU   3692.59s WALL (     246 calls)
     s_psi        :   1155.31s CPU   1157.74s WALL (     246 calls)
     g_psi        :      4.52s CPU      4.52s WALL (     191 calls)
     cdiaghg      :    282.41s CPU    287.87s WALL (     242 calls)
     cegterg:over :    346.23s CPU    348.50s WALL (     191 calls)
     cegterg:upda :    200.09s CPU    209.19s WALL (     191 calls)
     cegterg:last :    114.09s CPU    114.15s WALL (      55 calls)
     cdiaghg:chol :     13.21s CPU     13.33s WALL (     242 calls)
     cdiaghg:inve :      6.27s CPU      6.28s WALL (     242 calls)
     cdiaghg:para :     69.18s CPU     70.42s WALL (     484 calls)

     Called by h_psi:
     h_psi:pot    :   3672.21s CPU   3680.67s WALL (     246 calls)
     h_psi:calbec :   1206.00s CPU   1206.56s WALL (     246 calls)
     vloc_psi     :   1291.44s CPU   1296.67s WALL (     246 calls)
     add_vuspsi   :   1174.77s CPU   1177.44s WALL (     246 calls)

     General routines
     calbec       :   1774.57s CPU   1775.46s WALL (     308 calls)
     fft          :     41.97s CPU     43.47s WALL (     363 calls)
     ffts         :     12.74s CPU     12.78s WALL (     410 calls)
     fftw         :   1379.18s CPU   1384.36s WALL (  141754 calls)
     interpolate  :      3.87s CPU      4.13s WALL (      26 calls)
 
     Parallel routines
     fft_scatt_xy :    435.80s CPU    437.23s WALL (  142527 calls)
     fft_scatt_yz :    307.94s CPU    310.31s WALL (  142527 calls)

     PAW routines
     PAW_pot      :      4.78s CPU      5.32s WALL (      26 calls)
 
     PWSCF        :      2h33m CPU      2h35m WALL

 
   This run was terminated on:   1:40:22  27Feb2020            

=------------------------------------------------------------------------------=
   JOB DONE.
=------------------------------------------------------------------------------=
