begin
comment 255 atoms, species Al254Si
lattice     30.6664728719     0.0000000000     0.0000000000
lattice      0.0000000000    30.6664728719     0.0000000000
lattice      0.0000000000     0.0000000000    30.6664728719
atom      3.7620402260     0.0344261824     3.7006336808   Al  0.0 0.0    1.58954988e-04 -1.13394991e-04  1.10449992e-05
atom      3.7731782890     3.7731782890     0.0000000000   Si  0.0 0.0    1.13704991e-04  1.13704991e-04 -0.00000000e+00
atom      0.0344261824     3.7620402260     3.7006336808   Al  0.0 0.0   -1.13384991e-04  1.58949988e-04  1.10549992e-05
atom      0.0066822244     0.0066822244     7.6400794524   Al  0.0 0.0    4.05749970e-05  4.05749970e-05 -7.72249942e-05
atom      3.8268875496     3.8268875496     7.6397298546   Al  0.0 0.0   -3.24549976e-05 -3.24599976e-05 -2.78349979e-05
atom      3.8315396535     0.0019442544    11.4944656281   Al  0.0 0.0    3.64999973e-07 -1.53099988e-05 -9.08699932e-05
atom      0.0019442544     3.8315396535    11.4944656281   Al  0.0 0.0   -1.53049988e-05  3.59999973e-07 -9.08699932e-05
atom      0.0005949296     0.0005949296    15.3332364360   Al  0.0 0.0    2.14499984e-05  2.14499984e-05 -2.99999977e-08
atom      3.8342536364     3.8342536364    15.3332364360   Al  0.0 0.0   -1.35049990e-05 -1.34999990e-05 -2.49999981e-08
atom      3.8315396535     0.0019442544    19.1720072438   Al  0.0 0.0    3.59999973e-07 -1.53049988e-05  9.09049932e-05
atom      0.0019442544     3.8315396535    19.1720072438   Al  0.0 0.0   -1.52949989e-05  3.64999973e-07  9.09049932e-05
atom      0.0066822244     0.0066822244    23.0263934196   Al  0.0 0.0    4.05749970e-05  4.05699970e-05  7.72299942e-05
atom      3.8268875496     3.8268875496    23.0267430173   Al  0.0 0.0   -3.24599976e-05 -3.24649976e-05  2.77899979e-05
atom      3.7620402260     0.0344261824    26.9658391912   Al  0.0 0.0    1.58954988e-04 -1.13399991e-04 -1.10499992e-05
atom      0.0344261824     3.7620402260    26.9658391912   Al  0.0 0.0   -1.13399991e-04  1.58969988e-04 -1.10449992e-05
atom      0.0212886655     7.6457803497     0.0000000000   Al  0.0 0.0    3.65199973e-05  2.01819985e-04  4.99999962e-09
atom      3.8331159102    11.4883078004     0.0000000000   Al  0.0 0.0    2.12499984e-06 -9.16999931e-05 -0.00000000e+00
atom      3.8278044771     7.6425082370     3.8130293705   Al  0.0 0.0    9.19399931e-05  4.32199968e-05 -1.42509989e-04
atom      0.0017755888    11.4944502949     3.8311041896   Al  0.0 0.0   -4.40649967e-05  6.49499951e-05  5.52749958e-05
atom      0.0015578568     7.6350685507     7.6306801784   Al  0.0 0.0   -2.88149978e-05 -1.24299991e-05  3.83549971e-05
atom      3.8307515252    11.4882004677     7.6581144051   Al  0.0 0.0   -4.40499967e-05 -5.76299957e-05 -7.40499944e-06
atom      3.8307239253     7.6645267645    11.4930365705   Al  0.0 0.0   -4.24449968e-05 -1.23949991e-04 -1.60969988e-04
atom      0.0010303935    11.4947998927    11.4946066939   Al  0.0 0.0    2.76399979e-05 -1.54094988e-04 -1.42204989e-04
atom      0.0002698650     7.6668880829    15.3332364360   Al  0.0 0.0    2.54899981e-05 -1.54499988e-05 -1.99999985e-08
atom      3.8336035071    11.4988233339    15.3332364360   Al  0.0 0.0   -3.81999971e-05 -7.42799944e-05 -9.99999925e-09
atom      3.8307239253     7.6645267645    19.1734363014   Al  0.0 0.0   -4.24449968e-05 -1.23949991e-04  1.60994988e-04
atom      0.0010303935    11.4947998927    19.1718661780   Al  0.0 0.0    2.76499979e-05 -1.54079988e-04  1.42229989e-04
atom      0.0015578568     7.6350685507    23.0357926935   Al  0.0 0.0   -2.88149978e-05 -1.24249991e-05 -3.83599971e-05
atom      3.8307515252    11.4882004677    23.0083584669   Al  0.0 0.0   -4.40449967e-05 -5.76249957e-05  7.39499944e-06
atom      3.8278044771     7.6425082370    26.8534435014   Al  0.0 0.0    9.19499931e-05  4.32249968e-05  1.42524989e-04
atom      0.0017755888    11.4944502949    26.8353686823   Al  0.0 0.0   -4.40799967e-05  6.49549951e-05 -5.52799958e-05
atom      0.0008371947    15.3291424618     0.0000000000   Al  0.0 0.0    5.34999960e-07 -2.93499978e-06  1.49999989e-08
atom      3.8327295127    19.1640523607     0.0000000000   Al  0.0 0.0   -1.78999987e-06  2.54249981e-05  9.99999925e-09
atom      3.8347136334    15.3283451335     3.8332600426   Al  0.0 0.0   -9.65499927e-06 -1.46599989e-05 -1.02399992e-05
atom      0.0002115987    19.1655304847     3.8321621829   Al  0.0 0.0    1.06149992e-05  4.09999969e-05 -1.09399992e-05
atom      0.0008954610    15.3321232430     7.6665476851   Al  0.0 0.0    2.59999980e-05 -3.63649973e-05 -2.21349983e-05
atom      3.8307821916    19.1690325959     7.6654743585   Al  0.0 0.0   -2.95549978e-05  1.34989990e-04 -1.33084990e-04
atom      3.8336464402    15.3321109764    11.4992495979   Al  0.0 0.0   -3.78199972e-05 -3.15149976e-05 -3.57349973e-05
atom      0.0001073327    19.1705935194    11.4958118863   Al  0.0 0.0    1.86049986e-05  9.29799930e-05 -8.91799933e-05
atom      0.0001073327    15.3331996362    15.3332364360   Al  0.0 0.0    1.26799990e-05 -1.00999992e-05 -1.99999985e-08
atom      3.8335329742    19.1658984824    15.3332364360   Al  0.0 0.0   -3.13549976e-05  1.74249987e-05 -9.99999925e-09
atom      3.8336464402    15.3321109764    19.1672232740   Al  0.0 0.0   -3.78099972e-05 -3.15349976e-05  3.57499973e-05
atom      0.0001073327    19.1705935194    19.1706609856   Al  0.0 0.0    1.86049986e-05  9.29999930e-05  8.91599933e-05
atom      0.0008954610    15.3321232430    22.9999251868   Al  0.0 0.0    2.59949980e-05 -3.63899973e-05  2.21399983e-05
atom      3.8307821916    19.1690325959    23.0009985134   Al  0.0 0.0   -2.95449978e-05  1.34999990e-04  1.33109990e-04
atom      3.8347136334    15.3283451335    26.8332128293   Al  0.0 0.0   -9.64499928e-06 -1.46549989e-05  1.02049992e-05
atom      0.0002115987    19.1655304847    26.8343106890   Al  0.0 0.0    1.06049992e-05  4.10049969e-05  1.09499992e-05
atom      0.0000582663    23.0082174011     0.0000000000   Al  0.0 0.0   -1.84549986e-05 -6.79249949e-05  9.99999925e-09
atom      3.7702189743    26.8961036318     0.0000000000   Al  0.0 0.0    1.34889990e-04 -2.73169979e-04  1.49999989e-08
atom      3.8297364649    23.0081591348     3.8298560641   Al  0.0 0.0    1.52249989e-05 -1.81314986e-04  4.25499968e-05
atom      0.0075439523    26.9093730147     3.7635796830   Al  0.0 0.0   -5.49599959e-05 -8.76099934e-05 -1.38699990e-05
atom      0.0005642631    23.0281506085     7.6390674587   Al  0.0 0.0    2.97299978e-05 -3.07149977e-05  4.64599965e-05
atom      3.8302608616    26.8474604726     7.6504263203   Al  0.0 0.0   -1.84499986e-06  5.02749962e-05  8.57599936e-05
atom      3.8305061934    23.0011641123    11.4958762859   Al  0.0 0.0   -3.32949975e-05  1.56499988e-04 -1.90449986e-04
atom      0.0004814636    26.8362396102    11.4990441325   Al  0.0 0.0    3.03449977e-05  7.76799942e-05 -1.23979991e-04
atom      0.0002790649    22.9993762570    15.3332364360   Al  0.0 0.0    1.93449985e-05  1.55649988e-05 -9.99999925e-09
atom      3.8344621684    26.8337740257    15.3332364360   Al  0.0 0.0   -2.56899981e-05  7.46049944e-05 -9.99999925e-09
atom      3.8305061934    23.0011641123    19.1705965860   Al  0.0 0.0   -3.32899975e-05  1.56499988e-04  1.90474986e-04
atom      0.0004814636    26.8362396102    19.1674287394   Al  0.0 0.0    3.03549977e-05  7.76649942e-05  1.24019991e-04
atom      0.0005642631    23.0281506085    23.0274054132   Al  0.0 0.0    2.97249978e-05 -3.07099977e-05 -4.64799965e-05
atom      3.8302608616    26.8474604726    23.0160465516   Al  0.0 0.0   -1.85499986e-06  5.02749962e-05 -8.57449936e-05
atom      3.8297364649    23.0081591348    26.8366198744   Al  0.0 0.0    1.52349989e-05 -1.81319986e-04 -4.25699968e-05
atom      0.0075439523    26.9093730147    26.9028962556   Al  0.0 0.0   -5.49699959e-05 -8.75999934e-05  1.38449990e-05
atom      7.6457803497     0.0212886655     0.0000000000   Al  0.0 0.0    2.01809985e-04  3.65249973e-05  0.00000000e+00
atom     11.4883078004     3.8331159102     0.0000000000   Al  0.0 0.0   -9.16949931e-05  2.12999984e-06  4.99999962e-09
atom     11.4944502949     0.0017755888     3.8311041896   Al  0.0 0.0    6.49599951e-05 -4.40749967e-05  5.52749958e-05
atom      7.6425082370     3.8278044771     3.8130293705   Al  0.0 0.0    4.32099968e-05  9.19449931e-05 -1.42509989e-04
atom      7.6350685507     0.0015578568     7.6306801784   Al  0.0 0.0   -1.24399991e-05 -2.88149978e-05  3.83649971e-05
atom     11.4882004677     3.8307515252     7.6581144051   Al  0.0 0.0   -5.76349957e-05 -4.40499967e-05 -7.38999944e-06
atom     11.4947998927     0.0010303935    11.4946066939   Al  0.0 0.0   -1.54084988e-04  2.76349979e-05 -1.42199989e-04
atom      7.6645267645     3.8307239253    11.4930365705   Al  0.0 0.0   -1.23944991e-04 -4.24499968e-05 -1.60974988e-04
atom      7.6668880829     0.0002698650    15.3332364360   Al  0.0 0.0   -1.54449988e-05  2.54899981e-05 -2.49999981e-08
atom     11.4988233339     3.8336035071    15.3332364360   Al  0.0 0.0   -7.42649944e-05 -3.81949971e-05 -2.49999981e-08
atom     11.4947998927     0.0010303935    19.1718661780   Al  0.0 0.0   -1.54089988e-04  2.76399979e-05  1.42229989e-04
atom      7.6645267645     3.8307239253    19.1734363014   Al  0.0 0.0   -1.23949991e-04 -4.24399968e-05  1.61009988e-04
atom      7.6350685507     0.0015578568    23.0357926935   Al  0.0 0.0   -1.24299991e-05 -2.88199978e-05 -3.83449971e-05
atom     11.4882004677     3.8307515252    23.0083584669   Al  0.0 0.0   -5.76349957e-05 -4.40549967e-05  7.39499944e-06
atom     11.4944502949     0.0017755888    26.8353686823   Al  0.0 0.0    6.49499951e-05 -4.40649967e-05 -5.52899958e-05
atom      7.6425082370     3.8278044771    26.8534435014   Al  0.0 0.0    4.32249968e-05  9.19449931e-05  1.42514989e-04
atom      7.6190054522     7.6190054522     0.0000000000   Al  0.0 0.0   -1.54639988e-04 -1.54639988e-04 -4.99999962e-09
atom     11.4859710152    11.4859710152     0.0000000000   Al  0.0 0.0   -3.93999970e-05 -3.94099970e-05 -0.00000000e+00
atom     11.4897521913     7.6652290268     3.8296781986   Al  0.0 0.0   -2.70649980e-05 -4.89199963e-05  1.71049987e-05
atom      7.6652290268    11.4897521913     3.8296781986   Al  0.0 0.0   -4.89299963e-05 -2.70699980e-05  1.71199987e-05
atom      7.6672346141     7.6672346141     7.6634718379   Al  0.0 0.0   -6.60749950e-05 -6.60649950e-05  1.70949987e-05
atom     11.5020770467    11.5020770467     7.6681914080   Al  0.0 0.0   -2.16999984e-05 -2.17149984e-05 -1.43749989e-05
atom     11.4993139975     7.6652596932    11.4989551998   Al  0.0 0.0   -4.24149968e-05 -2.83349979e-05 -3.66449972e-05
atom      7.6652596932    11.4993139975    11.4989551998   Al  0.0 0.0   -2.83299979e-05 -4.24149968e-05 -3.66399972e-05
atom      7.6660355550     7.6660355550    15.3332364360   Al  0.0 0.0   -2.80799979e-05 -2.80599979e-05 -1.49999989e-08
atom     11.4991238654    11.4991238654    15.3332364360   Al  0.0 0.0   -1.83399986e-05 -1.83449986e-05 -4.99999962e-09
atom     11.4993139975     7.6652596932    19.1675176721   Al  0.0 0.0   -4.23999968e-05 -2.83149979e-05  3.66749972e-05
atom      7.6652596932    11.4993139975    19.1675176721   Al  0.0 0.0   -2.83249979e-05 -4.23999968e-05  3.66849972e-05
atom      7.6672346141     7.6672346141    23.0030010340   Al  0.0 0.0   -6.60649950e-05 -6.60649950e-05 -1.70899987e-05
atom     11.5020770467    11.5020770467    22.9982814639   Al  0.0 0.0   -2.17399984e-05 -2.17249984e-05  1.43499989e-05
atom     11.4897521913     7.6652290268    26.8367946733   Al  0.0 0.0   -2.70699980e-05 -4.89249963e-05 -1.70949987e-05
atom      7.6652290268    11.4897521913    26.8367946733   Al  0.0 0.0   -4.89249963e-05 -2.70749980e-05 -1.70999987e-05
atom      7.6667991502    15.3285536655     0.0000000000   Al  0.0 0.0    2.80549979e-05 -1.05499992e-05  9.99999925e-09
atom     11.4946588269    19.1705935194     0.0000000000   Al  0.0 0.0   -1.26504990e-04  7.69099942e-05  4.99999962e-09
atom     11.4992710644    15.3317184455     3.8323860482   Al  0.0 0.0   -5.97449955e-05 -4.21499968e-05 -5.47799959e-05
atom      7.6665507517    19.1694895263     3.8301964620   Al  0.0 0.0   -1.03614992e-04  1.40864989e-04 -3.82049971e-05
atom      7.6652412933    15.3320067104     7.6646862302   Al  0.0 0.0   -2.72749980e-05 -4.07699969e-05 -5.72199957e-05
atom     11.5002217251    19.1658310161     7.6652228935   Al  0.0 0.0   -1.91799986e-05 -4.17999969e-06 -1.83749986e-05
atom     11.4989061334    15.3336412334    11.4996298622   Al  0.0 0.0   -2.54249981e-05 -1.54049988e-05 -2.30449983e-05
atom      7.6658392896    19.1658678159    11.5007614550   Al  0.0 0.0   -2.54699981e-05  1.25599991e-05 -6.20999953e-06
atom      7.6681822081    15.3329144380    15.3332364360   Al  0.0 0.0   -1.10349992e-05 -1.40349989e-05 -9.99999925e-09
atom     11.4993047976    19.1673643398    15.3332364360   Al  0.0 0.0   -1.68999987e-05  1.22549991e-05 -1.99999985e-08
atom     11.4989061334    15.3336412334    19.1668430097   Al  0.0 0.0   -2.54249981e-05 -1.54149988e-05  2.30349983e-05
atom      7.6658392896    19.1658678159    19.1657114169   Al  0.0 0.0   -2.54799981e-05  1.25499991e-05  6.24499953e-06
atom      7.6652412933    15.3320067104    23.0017866417   Al  0.0 0.0   -2.72899979e-05 -4.07699969e-05  5.71949957e-05
atom     11.5002217251    19.1658310161    23.0012530451   Al  0.0 0.0   -1.91849986e-05 -4.17999969e-06  1.83499986e-05
atom     11.4992710644    15.3317184455    26.8340868238   Al  0.0 0.0   -5.97399955e-05 -4.21549968e-05  5.47999959e-05
atom      7.6665507517    19.1694895263    26.8362764099   Al  0.0 0.0   -1.03619992e-04  1.40864989e-04  3.81799971e-05
atom      7.6385338621    23.0311589894     0.0000000000   Al  0.0 0.0    1.20979991e-04 -9.11699931e-05  9.99999925e-09
atom     11.4907580516    26.8435658305     0.0000000000   Al  0.0 0.0    1.54249988e-05 -8.94199933e-05 -0.00000000e+00
atom     11.4958762859    23.0014799770     3.8293040676   Al  0.0 0.0   -2.06739984e-04  1.65719988e-04 -4.55499966e-05
atom      7.6588412005    26.8440074277     3.8299112638   Al  0.0 0.0    1.18424991e-04 -1.74499987e-05  2.14199984e-05
atom      7.6708379246    22.9957514799     7.6709820571   Al  0.0 0.0   -1.04964992e-04  1.36864990e-04 -1.23609991e-04
atom     11.4994182635    26.8341573566     7.6688660704   Al  0.0 0.0   -1.69299987e-04  4.63899965e-05 -1.16189991e-04
atom     11.5004609236    23.0001827852    11.5010405199   Al  0.0 0.0   -9.31999930e-06  9.48499929e-06 -4.86499963e-06
atom      7.6659343556    26.8368866727    11.4966092146   Al  0.0 0.0   -1.29614990e-04  7.83849941e-05 -1.90029986e-04
atom      7.6656951571    23.0003790506    15.3332364360   Al  0.0 0.0   -3.44149974e-05 -7.39999944e-07 -1.49999989e-08
atom     11.5002891913    26.8330809634    15.3332364360   Al  0.0 0.0   -1.11799992e-05  4.55149966e-05 -1.49999989e-08
atom     11.5004609236    23.0001827852    19.1654323520   Al  0.0 0.0   -9.31999930e-06  9.49999929e-06  4.87499963e-06
atom      7.6659343556    26.8368866727    19.1698636573   Al  0.0 0.0   -1.29614990e-04  7.83649941e-05  1.90034986e-04
atom      7.6708379246    22.9957514799    22.9954938815   Al  0.0 0.0   -1.04969992e-04  1.36869990e-04  1.23589991e-04
atom     11.4994182635    26.8341573566    22.9976068015   Al  0.0 0.0   -1.69294987e-04  4.63899965e-05  1.16219991e-04
atom     11.4958762859    23.0014799770    26.8371688043   Al  0.0 0.0   -2.06744984e-04  1.65724988e-04  4.55599966e-05
atom      7.6588412005    26.8440074277    26.8365616081   Al  0.0 0.0    1.18424991e-04 -1.74449987e-05 -2.14349984e-05
atom     15.3291424618     0.0008371947     0.0000000000   Al  0.0 0.0   -2.92999978e-06  5.29999960e-07  1.49999989e-08
atom     19.1640523607     3.8327295127     0.0000000000   Al  0.0 0.0    2.54249981e-05 -1.78999987e-06  1.49999989e-08
atom     19.1655304847     0.0002115987     3.8321621829   Al  0.0 0.0    4.09999969e-05  1.06149992e-05 -1.09349992e-05
atom     15.3283451335     3.8347136334     3.8332600426   Al  0.0 0.0   -1.46499989e-05 -9.64499928e-06 -1.02399992e-05
atom     15.3321232430     0.0008954610     7.6665476851   Al  0.0 0.0   -3.63699973e-05  2.59949980e-05 -2.21249983e-05
atom     19.1690325959     3.8307821916     7.6654743585   Al  0.0 0.0    1.34984990e-04 -2.95549978e-05 -1.33084990e-04
atom     19.1705935194     0.0001073327    11.4958118863   Al  0.0 0.0    9.29949930e-05  1.85949986e-05 -8.91799933e-05
atom     15.3321109764     3.8336464402    11.4992495979   Al  0.0 0.0   -3.15199976e-05 -3.78249972e-05 -3.57299973e-05
atom     15.3331996362     0.0001073327    15.3332364360   Al  0.0 0.0   -1.01049992e-05  1.26749990e-05 -2.49999981e-08
atom     19.1658984824     3.8335329742    15.3332364360   Al  0.0 0.0    1.74249987e-05 -3.13549976e-05 -9.99999925e-09
atom     19.1705935194     0.0001073327    19.1706609856   Al  0.0 0.0    9.29999930e-05  1.85949986e-05  8.91649933e-05
atom     15.3321109764     3.8336464402    19.1672232740   Al  0.0 0.0   -3.15149976e-05 -3.78099972e-05  3.57599973e-05
atom     15.3321232430     0.0008954610    22.9999251868   Al  0.0 0.0   -3.63749973e-05  2.59999980e-05  2.21449983e-05
atom     19.1690325959     3.8307821916    23.0009985134   Al  0.0 0.0    1.34989990e-04 -2.95399978e-05  1.33104990e-04
atom     19.1655304847     0.0002115987    26.8343106890   Al  0.0 0.0    4.09949969e-05  1.06149992e-05  1.09399992e-05
atom     15.3283451335     3.8347136334    26.8332128293   Al  0.0 0.0   -1.46549989e-05 -9.65499927e-06  1.02049992e-05
atom     15.3285536655     7.6667991502     0.0000000000   Al  0.0 0.0   -1.05499992e-05  2.80649979e-05  4.99999962e-09
atom     19.1705935194    11.4946588269     0.0000000000   Al  0.0 0.0    7.68999942e-05 -1.26509990e-04  1.49999989e-08
atom     19.1694895263     7.6665507517     3.8301964620   Al  0.0 0.0    1.40859989e-04 -1.03604992e-04 -3.82149971e-05
atom     15.3317184455    11.4992710644     3.8323860482   Al  0.0 0.0   -4.21399968e-05 -5.97499955e-05 -5.47749959e-05
atom     15.3320067104     7.6652412933     7.6646862302   Al  0.0 0.0   -4.07649969e-05 -2.72699980e-05 -5.72299957e-05
atom     19.1658310161    11.5002217251     7.6652228935   Al  0.0 0.0   -4.17999969e-06 -1.91649986e-05 -1.83799986e-05
atom     19.1658678159     7.6658392896    11.5007614550   Al  0.0 0.0    1.25599991e-05 -2.54799981e-05 -6.20999953e-06
atom     15.3336412334    11.4989061334    11.4996298622   Al  0.0 0.0   -1.54099988e-05 -2.54249981e-05 -2.30399983e-05
atom     15.3329144380     7.6681822081    15.3332364360   Al  0.0 0.0   -1.40349989e-05 -1.10299992e-05 -1.49999989e-08
atom     19.1673643398    11.4993047976    15.3332364360   Al  0.0 0.0    1.22449991e-05 -1.69049987e-05 -4.99999962e-09
atom     19.1658678159     7.6658392896    19.1657114169   Al  0.0 0.0    1.25599991e-05 -2.54749981e-05  6.24499953e-06
atom     15.3336412334    11.4989061334    19.1668430097   Al  0.0 0.0   -1.54199988e-05 -2.54349981e-05  2.30199983e-05
atom     15.3320067104     7.6652412933    23.0017866417   Al  0.0 0.0   -4.07599969e-05 -2.72849979e-05  5.71899957e-05
atom     19.1658310161    11.5002217251    23.0012530451   Al  0.0 0.0   -4.16999969e-06 -1.91899986e-05  1.83549986e-05
atom     19.1694895263     7.6665507517    26.8362764099   Al  0.0 0.0    1.40864989e-04 -1.03619992e-04  3.81849971e-05
atom     15.3317184455    11.4992710644    26.8340868238   Al  0.0 0.0   -4.21499968e-05 -5.97399955e-05  5.48099959e-05
atom     15.3323532415    15.3323532415     0.0000000000   Al  0.0 0.0   -7.25999945e-06 -7.26499945e-06 -4.99999962e-09
atom     19.1701365889    19.1701365889     0.0000000000   Al  0.0 0.0    5.62699958e-05  5.62749958e-05  4.99999962e-09
atom     19.1658126162    15.3335523006     3.8338672388   Al  0.0 0.0   -2.49999981e-07  1.41799989e-05 -5.47899959e-05
atom     15.3335523006    19.1658126162     3.8338672388   Al  0.0 0.0    1.41849989e-05 -2.49999981e-07 -5.48049959e-05
atom     15.3331843030    15.3331843030     7.6682834075   Al  0.0 0.0   -1.68299987e-05 -1.68449987e-05 -8.54999936e-06
atom     19.1661898139    19.1661898139     7.6662839534   Al  0.0 0.0    1.40799989e-05  1.40699989e-05 -9.45999929e-06
atom     19.1672662071    15.3326323064    11.4984400030   Al  0.0 0.0    5.31999960e-06 -1.56999988e-05 -3.46399974e-05
atom     15.3326323064    19.1672662071    11.4984400030   Al  0.0 0.0   -1.57099988e-05  5.30999960e-06 -3.46349974e-05
atom     15.3329880375    15.3329880375    15.3332364360   Al  0.0 0.0   -1.24499991e-05 -1.24599991e-05  0.00000000e+00
atom     19.1671496745    19.1671496745    15.3332364360   Al  0.0 0.0    1.89549986e-05  1.89649986e-05 -9.99999925e-09
atom     19.1672662071    15.3326323064    19.1680359355   Al  0.0 0.0    5.30999960e-06 -1.57049988e-05  3.46199974e-05
atom     15.3326323064    19.1672662071    19.1680359355   Al  0.0 0.0   -1.57049988e-05  5.30499960e-06  3.46199974e-05
atom     15.3331843030    15.3331843030    22.9981894645   Al  0.0 0.0   -1.68399987e-05 -1.68249987e-05  8.56999936e-06
atom     19.1661898139    19.1661898139    23.0001889185   Al  0.0 0.0    1.40749989e-05  1.40849989e-05  9.43999929e-06
atom     19.1658126162    15.3335523006    26.8326056331   Al  0.0 0.0   -2.59999980e-07  1.41799989e-05  5.48199959e-05
atom     15.3335523006    19.1658126162    26.8326056331   Al  0.0 0.0    1.41899989e-05 -2.49999981e-07  5.48099959e-05
atom     15.3320557767    22.9999282535     0.0000000000   Al  0.0 0.0   -2.58899981e-05  7.88499941e-06  0.00000000e+00
atom     19.1654752850    26.8350160179     0.0000000000   Al  0.0 0.0    3.97749970e-05  2.78449979e-05  4.99999962e-09
atom     19.1694281934    22.9997718545     3.8304049940   Al  0.0 0.0    1.39699990e-04  1.08289992e-04 -3.99299970e-05
atom     15.3318748446    26.8327589655     3.8335360409   Al  0.0 0.0   -3.61049973e-05  4.48549966e-05 -3.08099977e-05
atom     15.3335001676    23.0000754525     7.6655908911   Al  0.0 0.0   -4.95499963e-06  1.75399987e-05 -1.48699989e-05
atom     19.1688731302    26.8358624125     7.6664250192   Al  0.0 0.0    1.31129990e-04  3.38299975e-05 -1.11124992e-04
atom     19.1657052836    23.0008789141    11.5004517237   Al  0.0 0.0    1.21299991e-05  2.36949982e-05 -1.89849986e-05
atom     15.3335369674    26.8330134972    11.5009086541   Al  0.0 0.0   -1.27549990e-05  4.43349967e-05 -1.89449986e-05
atom     15.3330187040    22.9985727954    15.3332364360   Al  0.0 0.0   -6.00999955e-06  2.03149985e-05 -0.00000000e+00
atom     19.1663676794    26.8331944294    15.3332364360   Al  0.0 0.0    2.50399981e-05  4.62549965e-05 -1.49999989e-08
atom     19.1657052836    23.0008789141    19.1660242149   Al  0.0 0.0    1.21249991e-05  2.36899982e-05  1.89799986e-05
atom     15.3335369674    26.8330134972    19.1655642178   Al  0.0 0.0   -1.27549990e-05  4.43199967e-05  1.89599986e-05
atom     15.3335001676    23.0000754525    23.0008819808   Al  0.0 0.0   -4.95999963e-06  1.75549987e-05  1.48849989e-05
atom     19.1688731302    26.8358624125    23.0000478527   Al  0.0 0.0    1.31124990e-04  3.38299975e-05  1.11139992e-04
atom     19.1694281934    22.9997718545    26.8360678779   Al  0.0 0.0    1.39704990e-04  1.08294992e-04  3.99449970e-05
atom     15.3318748446    26.8327589655    26.8329368310   Al  0.0 0.0   -3.61199973e-05  4.48399966e-05  3.08049977e-05
atom     23.0082174011     0.0000582663     0.0000000000   Al  0.0 0.0   -6.79249949e-05 -1.84699986e-05  4.99999962e-09
atom     26.8961036318     3.7702189743     0.0000000000   Al  0.0 0.0   -2.73174979e-04  1.34889990e-04  4.99999962e-09
atom     26.9093730147     0.0075439523     3.7635796830   Al  0.0 0.0   -8.76099934e-05 -5.49599959e-05 -1.38699990e-05
atom     23.0081591348     3.8297364649     3.8298560641   Al  0.0 0.0   -1.81334986e-04  1.52299989e-05  4.25399968e-05
atom     23.0281506085     0.0005642631     7.6390674587   Al  0.0 0.0   -3.07149977e-05  2.97199978e-05  4.64599965e-05
atom     26.8474604726     3.8302608616     7.6504263203   Al  0.0 0.0    5.02799962e-05 -1.84999986e-06  8.57649936e-05
atom     26.8362396102     0.0004814636    11.4990441325   Al  0.0 0.0    7.76749942e-05  3.03449977e-05 -1.23984991e-04
atom     23.0011641123     3.8305061934    11.4958762859   Al  0.0 0.0    1.56504988e-04 -3.32799975e-05 -1.90439986e-04
atom     22.9993762570     0.0002790649    15.3332364360   Al  0.0 0.0    1.55649988e-05  1.93399985e-05 -1.49999989e-08
atom     26.8337740257     3.8344621684    15.3332364360   Al  0.0 0.0    7.46149944e-05 -2.56849981e-05 -1.99999985e-08
atom     26.8362396102     0.0004814636    19.1674287394   Al  0.0 0.0    7.76599942e-05  3.03399977e-05  1.24014991e-04
atom     23.0011641123     3.8305061934    19.1705965860   Al  0.0 0.0    1.56499988e-04 -3.32949975e-05  1.90479986e-04
atom     23.0281506085     0.0005642631    23.0274054132   Al  0.0 0.0   -3.06949977e-05  2.97199978e-05 -4.64799965e-05
atom     26.8474604726     3.8302608616    23.0160465516   Al  0.0 0.0    5.02799962e-05 -1.85999986e-06 -8.57349936e-05
atom     26.9093730147     0.0075439523    26.9028962556   Al  0.0 0.0   -8.76149934e-05 -5.49649959e-05  1.38349990e-05
atom     23.0081591348     3.8297364649    26.8366198744   Al  0.0 0.0   -1.81319986e-04  1.52349989e-05 -4.25649968e-05
atom     23.0311589894     7.6385338621     0.0000000000   Al  0.0 0.0   -9.11699931e-05  1.20974991e-04  1.49999989e-08
atom     26.8435658305    11.4907580516     0.0000000000   Al  0.0 0.0   -8.94049933e-05  1.54199988e-05  0.00000000e+00
atom     26.8440074277     7.6588412005     3.8299112638   Al  0.0 0.0   -1.74299987e-05  1.18434991e-04  2.14249984e-05
atom     23.0014799770    11.4958762859     3.8293040676   Al  0.0 0.0    1.65709988e-04 -2.06744984e-04 -4.55649966e-05
atom     22.9957514799     7.6708379246     7.6709820571   Al  0.0 0.0    1.36869990e-04 -1.04974992e-04 -1.23594991e-04
atom     26.8341573566    11.4994182635     7.6688660704   Al  0.0 0.0    4.63949965e-05 -1.69299987e-04 -1.16204991e-04
atom     26.8368866727     7.6659343556    11.4966092146   Al  0.0 0.0    7.83699941e-05 -1.29614990e-04 -1.90044986e-04
atom     23.0001827852    11.5004609236    11.5010405199   Al  0.0 0.0    9.49999929e-06 -9.30999930e-06 -4.87499963e-06
atom     23.0003790506     7.6656951571    15.3332364360   Al  0.0 0.0   -7.49999944e-07 -3.44099974e-05 -1.49999989e-08
atom     26.8330809634    11.5002891913    15.3332364360   Al  0.0 0.0    4.55049966e-05 -1.11699992e-05 -1.49999989e-08
atom     26.8368866727     7.6659343556    19.1698636573   Al  0.0 0.0    7.83699941e-05 -1.29609990e-04  1.90024986e-04
atom     23.0001827852    11.5004609236    19.1654323520   Al  0.0 0.0    9.49499929e-06 -9.31999930e-06  4.85999963e-06
atom     22.9957514799     7.6708379246    22.9954938815   Al  0.0 0.0    1.36854990e-04 -1.04969992e-04  1.23594991e-04
atom     26.8341573566    11.4994182635    22.9976068015   Al  0.0 0.0    4.64099965e-05 -1.69289987e-04  1.16204991e-04
atom     26.8440074277     7.6588412005    26.8365616081   Al  0.0 0.0   -1.74449987e-05  1.18429991e-04 -2.14199984e-05
atom     23.0014799770    11.4958762859    26.8371688043   Al  0.0 0.0    1.65714988e-04 -2.06749984e-04  4.55549966e-05
atom     22.9999282535    15.3320557767     0.0000000000   Al  0.0 0.0    7.87499941e-06 -2.58949981e-05  0.00000000e+00
atom     26.8350160179    19.1654752850     0.0000000000   Al  0.0 0.0    2.78549979e-05  3.97799970e-05 -0.00000000e+00
atom     26.8327589655    15.3318748446     3.8335360409   Al  0.0 0.0    4.48549966e-05 -3.61099973e-05 -3.07999977e-05
atom     22.9997718545    19.1694281934     3.8304049940   Al  0.0 0.0    1.08274992e-04  1.39704990e-04 -3.99299970e-05
atom     23.0000754525    15.3335001676     7.6655908911   Al  0.0 0.0    1.75299987e-05 -4.95499963e-06 -1.48699989e-05
atom     26.8358624125    19.1688731302     7.6664250192   Al  0.0 0.0    3.38299975e-05  1.31119990e-04 -1.11129992e-04
atom     26.8330134972    15.3335369674    11.5009086541   Al  0.0 0.0    4.43249967e-05 -1.27599990e-05 -1.89299986e-05
atom     23.0008789141    19.1657052836    11.5004517237   Al  0.0 0.0    2.36899982e-05  1.21249991e-05 -1.89899986e-05
atom     22.9985727954    15.3330187040    15.3332364360   Al  0.0 0.0    2.03249985e-05 -6.01499955e-06 -1.49999989e-08
atom     26.8331944294    19.1663676794    15.3332364360   Al  0.0 0.0    4.62549965e-05  2.50199981e-05 -9.99999925e-09
atom     26.8330134972    15.3335369674    19.1655642178   Al  0.0 0.0    4.43299967e-05 -1.27649990e-05  1.89549986e-05
atom     23.0008789141    19.1657052836    19.1660242149   Al  0.0 0.0    2.36849982e-05  1.21299991e-05  1.89799986e-05
atom     23.0000754525    15.3335001676    23.0008819808   Al  0.0 0.0    1.75449987e-05 -4.95999963e-06  1.48849989e-05
atom     26.8358624125    19.1688731302    23.0000478527   Al  0.0 0.0    3.38299975e-05  1.31139990e-04  1.11149992e-04
atom     26.8327589655    15.3318748446    26.8329368310   Al  0.0 0.0    4.48499966e-05 -3.61099973e-05  3.08049977e-05
atom     22.9997718545    19.1694281934    26.8360678779   Al  0.0 0.0    1.08294992e-04  1.39704990e-04  3.99449970e-05
atom     23.0272888806    23.0272888806     0.0000000000   Al  0.0 0.0   -6.34599952e-05 -6.34699952e-05  0.00000000e+00
atom     26.9007680024    26.9007680024     0.0000000000   Al  0.0 0.0   -4.26899968e-05 -4.26949968e-05  9.99999925e-09
atom     26.8380642653    23.0071502078     3.8303405944   Al  0.0 0.0    4.05199970e-05 -1.07649992e-04  5.30499960e-06
atom     23.0071502078    26.8380642653     3.8303405944   Al  0.0 0.0   -1.07649992e-04  4.05199970e-05  5.30499960e-06
atom     22.9952178832    22.9952178832     7.6714236543   Al  0.0 0.0    9.25949930e-05  9.26099930e-05 -8.67699935e-05
atom     26.8378833331    26.8378833331     7.6601107924   Al  0.0 0.0    5.80549956e-05  5.80649956e-05  9.77099927e-05
atom     26.8354760150    22.9994621231    11.4974280094   Al  0.0 0.0    3.25649976e-05  1.03114992e-04 -1.38644990e-04