begin
comment 4 atoms, species Al4
lattice      7.6666829680     0.0038333415     0.0000000000
lattice      0.0038333415     7.6666829680     0.0000000000
lattice      0.0000000000     0.0000000000     7.6666829680
atom      7.6695426407     7.6695426407     0.0000000000   Al  0.0 0.0    2.94999978e-07  2.84999979e-07 -1.57999988e-06
atom      3.8342806527     3.8342806527     0.0000000000   Al  0.0 0.0   -2.74999979e-07 -2.69999980e-07 -1.57999988e-06
atom      3.8362141901     7.6676106366     3.8333092839   Al  0.0 0.0   -8.69999935e-07  8.49999936e-07  1.57999988e-06
atom      7.6676106366     3.8362141901     3.8333092839   Al  0.0 0.0    8.49999936e-07 -8.64999935e-07  1.57999988e-06
energy -7.900544374213966e+01
charge 0.0000
end
