begin
comment uuid: adff6699-c043-4a99-bd00-4d83e1f396bc
lattice 13.5115416150 0.0000000000 0.0000000000
lattice -6.7557708075 11.7013382829 0.0000000000
lattice 0.0000000000 0.0000000000 22.9601721150
atom   3.614337    8.132430   1.913348 Mg  0.0   0.0  -0.0119160296  -0.0114963346  0.0009382550
atom   -2.094289    10.765231   1.913348 Mg  0.0   0.0  0.0159141344  -0.0045714198  0.0009382550
atom   -1.520048    4.505015   1.913348 Mg  0.0   0.0  -0.0039981049  0.0160677544  0.0009382550
atom   3.141433    3.568908   5.740043 Mg  0.0   0.0  -0.0062105348  -0.0074813797  -0.0000000000
atom   8.850060    0.936107   5.740043 Mg  0.0   0.0  0.0095843346  -0.0016377899  -0.0000000000
atom   8.275819    7.196323   5.740043 Mg  0.0   0.0  -0.0033737999  0.0091191697  -0.0000000000
atom   3.614337    8.132430   9.566738 Mg  0.0   0.0  -0.0119160346  -0.0114963346  -0.0009382550
atom   -2.094289    10.765231   9.566738 Mg  0.0   0.0  0.0159141344  -0.0045714198  -0.0009382550
atom   -1.520048    4.505015   9.566738 Mg  0.0   0.0  -0.0039981049  0.0160677544  -0.0009382550
atom   3.141433    3.568908   13.393434 Mg  0.0   0.0  0.0119160296  0.0114963346  0.0009382550
atom   8.850060    0.936107   13.393434 Mg  0.0   0.0  -0.0159141344  0.0045714198  0.0009382550
atom   8.275819    7.196323   13.393434 Mg  0.0   0.0  0.0039981049  -0.0160677544  0.0009382550
atom   3.614337    8.132430   17.220129 Mg  0.0   0.0  0.0062105348  0.0074813797  -0.0000000000
atom   -2.094289    10.765231   17.220129 Mg  0.0   0.0  -0.0095843346  0.0016377899  0.0000000000
atom   -1.520048    4.505015   17.220129 Mg  0.0   0.0  0.0033737999  -0.0091191697  -0.0000000000
atom   3.141433    3.568908   21.046824 Mg  0.0   0.0  0.0119160296  0.0114963346  -0.0009382550
atom   8.850060    0.936107   21.046824 Mg  0.0   0.0  -0.0159141344  0.0045714198  -0.0009382550
atom   8.275819    7.196323   21.046824 Mg  0.0   0.0  0.0039981049  -0.0160677544  -0.0009382550
atom   0.000000    0.000000   1.913348 Si  0.0   0.0  -0.0000000000  -0.0000000000  0.1191726406
atom   6.755771    3.900446   1.913348 Si  0.0   0.0  0.0000000000  -0.0000000000  -0.0023213199
atom   0.000000    7.800892   5.740043 Si  0.0   0.0  0.0000000000  0.0000000000  0.0000000000
atom   0.000000    0.000000   9.566738 Si  0.0   0.0  -0.0000000000  0.0000000000  -0.1191726406
atom   0.000000    0.000000   13.393434 Si  0.0   0.0  0.0000000000  -0.0000000000  0.1191726406
atom   6.755771    3.900446   9.566738 Si  0.0   0.0  -0.0000000000  0.0000000000  0.0023213199
atom   0.000000    7.800892   13.393434 Si  0.0   0.0  -0.0000000000  -0.0000000000  -0.0023213199
atom   0.000000    0.000000   21.046824 Si  0.0   0.0  0.0000000000  0.0000000000  -0.1191726406
atom   6.755771    3.900446   17.220129 Si  0.0   0.0  -0.0000000000  -0.0000000000  0.0000000000
atom   0.000000    7.800892   21.046824 Si  0.0   0.0  -0.0000000000  -0.0000000000  0.0023213199
energy -359.770502511197321
charge 0
end
begin
comment uuid: e7e37f86-6394-4b75-a0bd-f91733c11215
lattice 22.9034803320 0.0000000000 0.0000000000
lattice 0.0000000000 22.9034803320 0.0000000000
lattice 0.0000000000 0.0000000000 22.9034803320
atom   0.000000    3.817247   3.817247 Al  0.0   0.0  -0.0000000000  0.0023927499  0.0023927499
atom   3.817247    0.000000   3.817247 Al  0.0   0.0  0.0023927499  0.0000000000  0.0023927499
atom   3.817247    3.817247   0.000000 Al  0.0   0.0  0.0023927499  0.0023927499  -0.0000000000
atom   0.000000    0.000000   7.634493 Al  0.0   0.0  -0.0000000000  -0.0000000000  0.0002470050
atom   0.000000    3.817247   11.451740 Al  0.0   0.0  0.0000000000  -0.0000572400  0.0000000000
atom   3.817247    0.000000   11.451740 Al  0.0   0.0  -0.0000572400  0.0000000000  0.0000000000
atom   3.817247    3.817247   7.634493 Al  0.0   0.0  0.0000437450  0.0000437500  0.0002538950
atom   0.000000    0.000000   15.268987 Al  0.0   0.0  -0.0000000000  0.0000000000  -0.0002470050
atom   0.000000    3.817247   19.086234 Al  0.0   0.0  0.0000000000  0.0023927499  -0.0023927499
atom   3.817247    0.000000   19.086234 Al  0.0   0.0  0.0023927499  0.0000000000  -0.0023927499
atom   3.817247    3.817247   15.268987 Al  0.0   0.0  0.0000437450  0.0000437500  -0.0002538950
atom   0.000000    7.634493   0.000000 Al  0.0   0.0  -0.0000000000  0.0002470000  0.0000000000
atom   0.000000    11.451740   3.817247 Al  0.0   0.0  0.0000000000  -0.0000000000  -0.0000572400
atom   3.817247    7.634493   3.817247 Al  0.0   0.0  0.0000437450  0.0002538950  0.0000437450
atom   3.817247    11.451740   0.000000 Al  0.0   0.0  -0.0000572400  -0.0000000000  -0.0000000000
atom   0.000000    7.634493   7.634493 Al  0.0   0.0  -0.0000000000  -0.0000267550  -0.0000267550
atom   0.000000    11.451740   11.451740 Al  0.0   0.0  -0.0000000000  0.0000000000  0.0000000000
atom   3.817247    7.634493   11.451740 Al  0.0   0.0  -0.0000008250  0.0000116500  0.0000000000
atom   3.817247    11.451740   7.634493 Al  0.0   0.0  -0.0000008250  -0.0000000000  0.0000116500
atom   0.000000    7.634493   15.268987 Al  0.0   0.0  -0.0000000000  -0.0000267550  0.0000267550
atom   0.000000    11.451740   19.086234 Al  0.0   0.0  -0.0000000000  -0.0000000000  0.0000572400
atom   3.817247    7.634493   19.086234 Al  0.0   0.0  0.0000437500  0.0002538950  -0.0000437500
atom   3.817247    11.451740   15.268987 Al  0.0   0.0  -0.0000008250  0.0000000000  -0.0000116500
atom   0.000000    15.268987   0.000000 Al  0.0   0.0  -0.0000000000  -0.0002470050  0.0000000000
atom   0.000000    19.086234   3.817247 Al  0.0   0.0  0.0000000000  -0.0023927499  0.0023927499
atom   3.817247    15.268987   3.817247 Al  0.0   0.0  0.0000437500  -0.0002538950  0.0000437500
atom   3.817247    19.086234   0.000000 Al  0.0   0.0  0.0023927499  -0.0023927499  0.0000000000
atom   0.000000    15.268987   7.634493 Al  0.0   0.0  0.0000000000  0.0000267550  -0.0000267550
atom   0.000000    19.086234   11.451740 Al  0.0   0.0  0.0000000000  0.0000572400  -0.0000000000
atom   3.817247    15.268987   11.451740 Al  0.0   0.0  -0.0000008250  -0.0000116500  0.0000000000
atom   3.817247    19.086234   7.634493 Al  0.0   0.0  0.0000437500  -0.0000437500  0.0002538950
atom   0.000000    15.268987   15.268987 Al  0.0   0.0  0.0000000000  0.0000267550  0.0000267550
atom   0.000000    19.086234   19.086234 Al  0.0   0.0  -0.0000000000  -0.0023927499  -0.0023927499
atom   3.817247    15.268987   19.086234 Al  0.0   0.0  0.0000437450  -0.0002538950  -0.0000437500
atom   3.817247    19.086234   15.268987 Al  0.0   0.0  0.0000437500  -0.0000437500  -0.0002538950
atom   7.634493    0.000000   0.000000 Al  0.0   0.0  0.0002470050  0.0000000000  0.0000000000
atom   7.634493    3.817247   3.817247 Al  0.0   0.0  0.0002538950  0.0000437500  0.0000437450
atom   11.451740    0.000000   3.817247 Al  0.0   0.0  -0.0000000000  -0.0000000000  -0.0000572400
atom   11.451740    3.817247   0.000000 Al  0.0   0.0  -0.0000000000  -0.0000572400  -0.0000000000
atom   7.634493    0.000000   7.634493 Al  0.0   0.0  -0.0000267550  -0.0000000000  -0.0000267550
atom   7.634493    3.817247   11.451740 Al  0.0   0.0  0.0000116500  -0.0000008250  -0.0000000000
atom   11.451740    0.000000   11.451740 Al  0.0   0.0  -0.0000000000  -0.0000000000  0.0000000000
atom   11.451740    3.817247   7.634493 Al  0.0   0.0  0.0000000000  -0.0000008250  0.0000116500
atom   7.634493    0.000000   15.268987 Al  0.0   0.0  -0.0000267550  0.0000000000  0.0000267550
atom   7.634493    3.817247   19.086234 Al  0.0   0.0  0.0002538950  0.0000437500  -0.0000437450
atom   11.451740    0.000000   19.086234 Al  0.0   0.0  -0.0000000000  -0.0000000000  0.0000572400
atom   11.451740    3.817247   15.268987 Al  0.0   0.0  0.0000000000  -0.0000008250  -0.0000116450
atom   7.634493    7.634493   0.000000 Al  0.0   0.0  -0.0000267550  -0.0000267550  -0.0000000000
atom   7.634493    11.451740   3.817247 Al  0.0   0.0  0.0000116500  -0.0000000000  -0.0000008250
atom   11.451740    7.634493   3.817247 Al  0.0   0.0  -0.0000000000  0.0000116450  -0.0000008250
atom   11.451740    11.451740   0.000000 Al  0.0   0.0  -0.0000000000  -0.0000000000  -0.0000000000
atom   7.634493    7.634493   7.634493 Al  0.0   0.0  0.0000059000  0.0000059000  0.0000059000
atom   7.634493    11.451740   11.451740 Al  0.0   0.0  -0.0000665000  -0.0000000000  -0.0000000000
atom   11.451740    7.634493   11.451740 Al  0.0   0.0  -0.0000000000  -0.0000665000  -0.0000000000
atom   11.451740    11.451740   7.634493 Al  0.0   0.0  0.0000000000  0.0000000000  -0.0000665000
atom   7.634493    7.634493   15.268987 Al  0.0   0.0  0.0000059000  0.0000059000  -0.0000059000
atom   7.634493    11.451740   19.086234 Al  0.0   0.0  0.0000116500  -0.0000000000  0.0000008250
atom   11.451740    7.634493   19.086234 Al  0.0   0.0  0.0000000000  0.0000116450  0.0000008250
atom   11.451740    11.451740   15.268987 Al  0.0   0.0  0.0000000000  0.0000000000  0.0000665000
atom   7.634493    15.268987   0.000000 Al  0.0   0.0  -0.0000267550  0.0000267550  -0.0000000000
atom   7.634493    19.086234   3.817247 Al  0.0   0.0  0.0002538950  -0.0000437500  0.0000437450
atom   11.451740    15.268987   3.817247 Al  0.0   0.0  -0.0000000000  -0.0000116450  -0.0000008250
atom   11.451740    19.086234   0.000000 Al  0.0   0.0  0.0000000000  0.0000572400  0.0000000000
atom   7.634493    15.268987   7.634493 Al  0.0   0.0  0.0000059000  -0.0000059000  0.0000059000
atom   7.634493    19.086234   11.451740 Al  0.0   0.0  0.0000116500  0.0000008250  -0.0000000000
atom   11.451740    15.268987   11.451740 Al  0.0   0.0  -0.0000000000  0.0000665000  0.0000000000
atom   11.451740    19.086234   7.634493 Al  0.0   0.0  -0.0000000000  0.0000008250  0.0000116500
atom   7.634493    15.268987   15.268987 Al  0.0   0.0  0.0000059000  -0.0000059000  -0.0000059000
atom   7.634493    19.086234   19.086234 Al  0.0   0.0  0.0002538950  -0.0000437500  -0.0000437500
atom   11.451740    15.268987   19.086234 Al  0.0   0.0  0.0000000000  -0.0000116500  0.0000008250
atom   11.451740    19.086234   15.268987 Al  0.0   0.0  0.0000000000  0.0000008250  -0.0000116500
atom   15.268987    0.000000   0.000000 Al  0.0   0.0  -0.0002470050  -0.0000000000  0.0000000000
atom   15.268987    3.817247   3.817247 Al  0.0   0.0  -0.0002538950  0.0000437500  0.0000437450
atom   19.086234    0.000000   3.817247 Al  0.0   0.0  -0.0023927499  -0.0000000000  0.0023927499
atom   19.086234    3.817247   0.000000 Al  0.0   0.0  -0.0023927499  0.0023927499  0.0000000000
atom   15.268987    0.000000   7.634493 Al  0.0   0.0  0.0000267550  0.0000000000  -0.0000267550
atom   15.268987    3.817247   11.451740 Al  0.0   0.0  -0.0000116500  -0.0000008250  0.0000000000
atom   19.086234    0.000000   11.451740 Al  0.0   0.0  0.0000572400  0.0000000000  0.0000000000
atom   19.086234    3.817247   7.634493 Al  0.0   0.0  -0.0000437450  0.0000437450  0.0002538950
atom   15.268987    0.000000   15.268987 Al  0.0   0.0  0.0000267550  0.0000000000  0.0000267550
atom   15.268987    3.817247   19.086234 Al  0.0   0.0  -0.0002538950  0.0000437500  -0.0000437500
atom   19.086234    0.000000   19.086234 Al  0.0   0.0  -0.0023927499  -0.0000000000  -0.0023927499
atom   19.086234    3.817247   15.268987 Al  0.0   0.0  -0.0000437500  0.0000437450  -0.0002538950
atom   15.268987    7.634493   0.000000 Al  0.0   0.0  0.0000267550  -0.0000267550  0.0000000000
atom   15.268987    11.451740   3.817247 Al  0.0   0.0  -0.0000116500  -0.0000000000  -0.0000008250
atom   19.086234    7.634493   3.817247 Al  0.0   0.0  -0.0000437450  0.0002538950  0.0000437500
atom   19.086234    11.451740   0.000000 Al  0.0   0.0  0.0000572400  0.0000000000  -0.0000000000
atom   15.268987    7.634493   7.634493 Al  0.0   0.0  -0.0000059000  0.0000059000  0.0000059000
atom   15.268987    11.451740   11.451740 Al  0.0   0.0  0.0000665000  0.0000000000  0.0000000000
atom   19.086234    7.634493   11.451740 Al  0.0   0.0  0.0000008250  0.0000116500  -0.0000000000
atom   19.086234    11.451740   7.634493 Al  0.0   0.0  0.0000008250  -0.0000000000  0.0000116500
atom   15.268987    7.634493   15.268987 Al  0.0   0.0  -0.0000059000  0.0000059000  -0.0000059000
atom   15.268987    11.451740   19.086234 Al  0.0   0.0  -0.0000116500  0.0000000000  0.0000008250
atom   19.086234    7.634493   19.086234 Al  0.0   0.0  -0.0000437450  0.0002538950  -0.0000437500
atom   19.086234    11.451740   15.268987 Al  0.0   0.0  0.0000008250  -0.0000000000  -0.0000116500
atom   15.268987    15.268987   0.000000 Al  0.0   0.0  0.0000267550  0.0000267550  -0.0000000000
atom   15.268987    19.086234   3.817247 Al  0.0   0.0  -0.0002538950  -0.0000437500  0.0000437450
atom   19.086234    15.268987   3.817247 Al  0.0   0.0  -0.0000437450  -0.0002538900  0.0000437450
atom   19.086234    19.086234   0.000000 Al  0.0   0.0  -0.0023927499  -0.0023927499  -0.0000000000
atom   15.268987    15.268987   7.634493 Al  0.0   0.0  -0.0000059000  -0.0000059000  0.0000059000
atom   15.268987    19.086234   11.451740 Al  0.0   0.0  -0.0000116500  0.0000008250  0.0000000000
atom   19.086234    15.268987   11.451740 Al  0.0   0.0  0.0000008250  -0.0000116500  0.0000000000
atom   19.086234    19.086234   7.634493 Al  0.0   0.0  -0.0000437500  -0.0000437500  0.0002538950
atom   15.268987    15.268987   15.268987 Al  0.0   0.0  -0.0000059000  -0.0000059000  -0.0000059000
atom   15.268987    19.086234   19.086234 Al  0.0   0.0  -0.0002538950  -0.0000437500  -0.0000437450
atom   19.086234    15.268987   19.086234 Al  0.0   0.0  -0.0000437500  -0.0002538950  -0.0000437450
atom   19.086234    19.086234   15.268987 Al  0.0   0.0  -0.0000437450  -0.0000437500  -0.0002538950
atom   0.000000    0.000000   0.000000 Mg  0.0   0.0  0.0000000000  0.0000000000  -0.0000000000
energy -2130.203420467520573
charge 0
end
begin
comment uuid: ef9647be-b8aa-470c-9fa8-b69722af8a24
lattice 22.9034803320 0.0000000000 0.0000000000
lattice 0.0000000000 22.9034803320 0.0000000000
lattice 0.0000000000 0.0000000000 22.9034803320
atom   0.000000    3.817247   3.817247 Al  0.0   0.0  -0.0000000000  -0.0012122350  -0.0012122350
atom   3.817247    0.000000   3.817247 Al  0.0   0.0  -0.0012122400  0.0000000000  -0.0012122350
atom   3.817247    3.817247   0.000000 Al  0.0   0.0  -0.0012122350  -0.0012122400  -0.0000000000
atom   0.000000    0.000000   7.634493 Al  0.0   0.0  -0.0000000000  -0.0000000000  -0.0003944650
atom   0.000000    3.817247   11.451740 Al  0.0   0.0  0.0000000000  0.0000668250  -0.0000000000
atom   3.817247    0.000000   11.451740 Al  0.0   0.0  0.0000668250  0.0000000000  -0.0000000000
atom   3.817247    3.817247   7.634493 Al  0.0   0.0  0.0000282950  0.0000282900  -0.0000590450
atom   0.000000    0.000000   15.268987 Al  0.0   0.0  0.0000000050  -0.0000000000  0.0003944650
atom   0.000000    3.817247   19.086234 Al  0.0   0.0  0.0000000000  -0.0012122350  0.0012122350
atom   3.817247    0.000000   19.086234 Al  0.0   0.0  -0.0012122350  -0.0000000000  0.0012122350
atom   3.817247    3.817247   15.268987 Al  0.0   0.0  0.0000282950  0.0000282950  0.0000590450
atom   0.000000    7.634493   0.000000 Al  0.0   0.0  -0.0000000000  -0.0003944650  -0.0000000000
atom   0.000000    11.451740   3.817247 Al  0.0   0.0  -0.0000000050  0.0000000000  0.0000668250
atom   3.817247    7.634493   3.817247 Al  0.0   0.0  0.0000282900  -0.0000590450  0.0000282900
atom   3.817247    11.451740   0.000000 Al  0.0   0.0  0.0000668250  0.0000000000  -0.0000000000
atom   0.000000    7.634493   7.634493 Al  0.0   0.0  -0.0000000000  -0.0000859300  -0.0000859300
atom   0.000000    11.451740   11.451740 Al  0.0   0.0  0.0000000000  -0.0000000000  -0.0000000000
atom   3.817247    7.634493   11.451740 Al  0.0   0.0  -0.0000292250  -0.0000598150  -0.0000000000
atom   3.817247    11.451740   7.634493 Al  0.0   0.0  -0.0000292250  0.0000000000  -0.0000598150
atom   0.000000    7.634493   15.268987 Al  0.0   0.0  0.0000000050  -0.0000859300  0.0000859250
atom   0.000000    11.451740   19.086234 Al  0.0   0.0  -0.0000000000  0.0000000000  -0.0000668250
atom   3.817247    7.634493   19.086234 Al  0.0   0.0  0.0000282850  -0.0000590400  -0.0000282850
atom   3.817247    11.451740   15.268987 Al  0.0   0.0  -0.0000292250  -0.0000000000  0.0000598150
atom   0.000000    15.268987   0.000000 Al  0.0   0.0  -0.0000000000  0.0003944650  -0.0000000000
atom   0.000000    19.086234   3.817247 Al  0.0   0.0  -0.0000000000  0.0012122300  -0.0012122350
atom   3.817247    15.268987   3.817247 Al  0.0   0.0  0.0000282850  0.0000590450  0.0000282900
atom   3.817247    19.086234   0.000000 Al  0.0   0.0  -0.0012122300  0.0012122350  0.0000000000
atom   0.000000    15.268987   7.634493 Al  0.0   0.0  0.0000000000  0.0000859300  -0.0000859300
atom   0.000000    19.086234   11.451740 Al  0.0   0.0  0.0000000000  -0.0000668250  0.0000000000
atom   3.817247    15.268987   11.451740 Al  0.0   0.0  -0.0000292200  0.0000598150  -0.0000000000
atom   3.817247    19.086234   7.634493 Al  0.0   0.0  0.0000282900  -0.0000282900  -0.0000590400
atom   0.000000    15.268987   15.268987 Al  0.0   0.0  -0.0000000050  0.0000859300  0.0000859300
atom   0.000000    19.086234   19.086234 Al  0.0   0.0  -0.0000000000  0.0012122350  0.0012122300
atom   3.817247    15.268987   19.086234 Al  0.0   0.0  0.0000282900  0.0000590450  -0.0000282900
atom   3.817247    19.086234   15.268987 Al  0.0   0.0  0.0000282900  -0.0000282900  0.0000590400
atom   7.634493    0.000000   0.000000 Al  0.0   0.0  -0.0003944650  -0.0000000000  -0.0000000000
atom   7.634493    3.817247   3.817247 Al  0.0   0.0  -0.0000590400  0.0000282900  0.0000282950
atom   11.451740    0.000000   3.817247 Al  0.0   0.0  -0.0000000050  0.0000000000  0.0000668250
atom   11.451740    3.817247   0.000000 Al  0.0   0.0  -0.0000000000  0.0000668300  0.0000000050
atom   7.634493    0.000000   7.634493 Al  0.0   0.0  -0.0000859300  0.0000000000  -0.0000859300
atom   7.634493    3.817247   11.451740 Al  0.0   0.0  -0.0000598150  -0.0000292200  0.0000000000
atom   11.451740    0.000000   11.451740 Al  0.0   0.0  0.0000000000  0.0000000000  0.0000000000
atom   11.451740    3.817247   7.634493 Al  0.0   0.0  -0.0000000000  -0.0000292250  -0.0000598200
atom   7.634493    0.000000   15.268987 Al  0.0   0.0  -0.0000859300  -0.0000000000  0.0000859300
atom   7.634493    3.817247   19.086234 Al  0.0   0.0  -0.0000590400  0.0000282900  -0.0000282900
atom   11.451740    0.000000   19.086234 Al  0.0   0.0  -0.0000000000  0.0000000000  -0.0000668250
atom   11.451740    3.817247   15.268987 Al  0.0   0.0  0.0000000000  -0.0000292250  0.0000598150
atom   7.634493    7.634493   0.000000 Al  0.0   0.0  -0.0000859300  -0.0000859300  -0.0000000000
atom   7.634493    11.451740   3.817247 Al  0.0   0.0  -0.0000598150  0.0000000000  -0.0000292250
atom   11.451740    7.634493   3.817247 Al  0.0   0.0  -0.0000000000  -0.0000598150  -0.0000292200
atom   11.451740    11.451740   0.000000 Al  0.0   0.0  0.0000000000  0.0000000000  -0.0000000000
atom   7.634493    7.634493   7.634493 Al  0.0   0.0  0.0000574650  0.0000574650  0.0000574650
atom   7.634493    11.451740   11.451740 Al  0.0   0.0  0.0000433950  -0.0000000050  -0.0000000000
atom   11.451740    7.634493   11.451740 Al  0.0   0.0  0.0000000000  0.0000433950  0.0000000000
atom   11.451740    11.451740   7.634493 Al  0.0   0.0  -0.0000000050  0.0000000000  0.0000433950
atom   7.634493    7.634493   15.268987 Al  0.0   0.0  0.0000574650  0.0000574650  -0.0000574650
atom   7.634493    11.451740   19.086234 Al  0.0   0.0  -0.0000598150  -0.0000000000  0.0000292250
atom   11.451740    7.634493   19.086234 Al  0.0   0.0  0.0000000000  -0.0000598150  0.0000292250
atom   11.451740    11.451740   15.268987 Al  0.0   0.0  0.0000000000  -0.0000000000  -0.0000433950
atom   7.634493    15.268987   0.000000 Al  0.0   0.0  -0.0000859300  0.0000859300  0.0000000000
atom   7.634493    19.086234   3.817247 Al  0.0   0.0  -0.0000590400  -0.0000282950  0.0000282950
atom   11.451740    15.268987   3.817247 Al  0.0   0.0  0.0000000050  0.0000598150  -0.0000292250
atom   11.451740    19.086234   0.000000 Al  0.0   0.0  -0.0000000000  -0.0000668250  -0.0000000000
atom   7.634493    15.268987   7.634493 Al  0.0   0.0  0.0000574600  -0.0000574650  0.0000574650
atom   7.634493    19.086234   11.451740 Al  0.0   0.0  -0.0000598200  0.0000292250  -0.0000000000
atom   11.451740    15.268987   11.451740 Al  0.0   0.0  0.0000000000  -0.0000433950  -0.0000000000
atom   11.451740    19.086234   7.634493 Al  0.0   0.0  0.0000000000  0.0000292250  -0.0000598200
atom   7.634493    15.268987   15.268987 Al  0.0   0.0  0.0000574650  -0.0000574600  -0.0000574650
atom   7.634493    19.086234   19.086234 Al  0.0   0.0  -0.0000590400  -0.0000282900  -0.0000282900
atom   11.451740    15.268987   19.086234 Al  0.0   0.0  0.0000000000  0.0000598150  0.0000292200
atom   11.451740    19.086234   15.268987 Al  0.0   0.0  -0.0000000000  0.0000292200  0.0000598200
atom   15.268987    0.000000   0.000000 Al  0.0   0.0  0.0003944650  -0.0000000000  0.0000000000
atom   15.268987    3.817247   3.817247 Al  0.0   0.0  0.0000590400  0.0000282900  0.0000282900
atom   19.086234    0.000000   3.817247 Al  0.0   0.0  0.0012122350  0.0000000000  -0.0012122350
atom   19.086234    3.817247   0.000000 Al  0.0   0.0  0.0012122350  -0.0012122300  0.0000000050
atom   15.268987    0.000000   7.634493 Al  0.0   0.0  0.0000859300  -0.0000000000  -0.0000859300
atom   15.268987    3.817247   11.451740 Al  0.0   0.0  0.0000598150  -0.0000292250  0.0000000050
atom   19.086234    0.000000   11.451740 Al  0.0   0.0  -0.0000668300  -0.0000000050  0.0000000000
atom   19.086234    3.817247   7.634493 Al  0.0   0.0  -0.0000282900  0.0000282900  -0.0000590450
atom   15.268987    0.000000   15.268987 Al  0.0   0.0  0.0000859250  0.0000000000  0.0000859300
atom   15.268987    3.817247   19.086234 Al  0.0   0.0  0.0000590400  0.0000282900  -0.0000282900
atom   19.086234    0.000000   19.086234 Al  0.0   0.0  0.0012122350  0.0000000000  0.0012122350
atom   19.086234    3.817247   15.268987 Al  0.0   0.0  -0.0000282900  0.0000282900  0.0000590400
atom   15.268987    7.634493   0.000000 Al  0.0   0.0  0.0000859300  -0.0000859300  -0.0000000000
atom   15.268987    11.451740   3.817247 Al  0.0   0.0  0.0000598150  -0.0000000000  -0.0000292200
atom   19.086234    7.634493   3.817247 Al  0.0   0.0  -0.0000282900  -0.0000590400  0.0000282900
atom   19.086234    11.451740   0.000000 Al  0.0   0.0  -0.0000668250  0.0000000000  -0.0000000000
atom   15.268987    7.634493   7.634493 Al  0.0   0.0  -0.0000574650  0.0000574600  0.0000574650
atom   15.268987    11.451740   11.451740 Al  0.0   0.0  -0.0000433900  -0.0000000050  0.0000000000
atom   19.086234    7.634493   11.451740 Al  0.0   0.0  0.0000292250  -0.0000598100  0.0000000000
atom   19.086234    11.451740   7.634493 Al  0.0   0.0  0.0000292250  0.0000000000  -0.0000598200
atom   15.268987    7.634493   15.268987 Al  0.0   0.0  -0.0000574650  0.0000574650  -0.0000574650
atom   15.268987    11.451740   19.086234 Al  0.0   0.0  0.0000598150  0.0000000000  0.0000292250
atom   19.086234    7.634493   19.086234 Al  0.0   0.0  -0.0000282900  -0.0000590450  -0.0000282900
atom   19.086234    11.451740   15.268987 Al  0.0   0.0  0.0000292200  0.0000000050  0.0000598150
atom   15.268987    15.268987   0.000000 Al  0.0   0.0  0.0000859300  0.0000859300  0.0000000000
atom   15.268987    19.086234   3.817247 Al  0.0   0.0  0.0000590350  -0.0000282900  0.0000282950
atom   19.086234    15.268987   3.817247 Al  0.0   0.0  -0.0000282900  0.0000590450  0.0000282900
atom   19.086234    19.086234   0.000000 Al  0.0   0.0  0.0012122350  0.0012122350  -0.0000000000
atom   15.268987    15.268987   7.634493 Al  0.0   0.0  -0.0000574650  -0.0000574650  0.0000574650
atom   15.268987    19.086234   11.451740 Al  0.0   0.0  0.0000598150  0.0000292250  0.0000000000
atom   19.086234    15.268987   11.451740 Al  0.0   0.0  0.0000292200  0.0000598150  0.0000000000
atom   19.086234    19.086234   7.634493 Al  0.0   0.0  -0.0000282900  -0.0000282950  -0.0000590400
atom   15.268987    15.268987   15.268987 Al  0.0   0.0  -0.0000574600  -0.0000574650  -0.0000574650
atom   15.268987    19.086234   19.086234 Al  0.0   0.0  0.0000590400  -0.0000282900  -0.0000282950
atom   19.086234    15.268987   19.086234 Al  0.0   0.0  -0.0000282900  0.0000590400  -0.0000282900
atom   19.086234    19.086234   15.268987 Al  0.0   0.0  -0.0000282900  -0.0000282900  0.0000590450
atom   0.000000    0.000000   0.000000 Si  0.0   0.0  0.0000000000  0.0000000000  0.0000000000
energy -2119.093132359991614
charge 0
end
begin
comment uuid: 98812a87-a048-4b4a-91b9-7f7fe8a2bcd8
lattice 22.9034803320 0.0000000000 0.0000000000
lattice 0.0000000000 22.9034803320 0.0000000000
lattice 0.0000000000 0.0000000000 22.9034803320
atom   0.000000    0.000000   0.000000 Al  0.0   0.0  0.0000000000  -0.0000000000  0.0000000000
atom   0.000000    3.817247   3.817247 Al  0.0   0.0  0.0000000000  0.0000000000  0.0000000000
atom   3.817247    0.000000   3.817247 Al  0.0   0.0  -0.0000000000  -0.0000000000  -0.0000000000
atom   3.817247    3.817247   0.000000 Al  0.0   0.0  0.0000000000  0.0000000000  0.0000000000
atom   0.000000    0.000000   7.634493 Al  0.0   0.0  0.0000000000  0.0000000000  0.0000000050
atom   0.000000    3.817247   11.451740 Al  0.0   0.0  -0.0000000000  -0.0000000000  -0.0000000050
atom   3.817247    0.000000   11.451740 Al  0.0   0.0  0.0000000000  -0.0000000000  -0.0000000050
atom   3.817247    3.817247   7.634493 Al  0.0   0.0  -0.0000000050  -0.0000000000  0.0000000000
atom   0.000000    0.000000   15.268987 Al  0.0   0.0  -0.0000000050  -0.0000000050  -0.0000000000
atom   0.000000    3.817247   19.086234 Al  0.0   0.0  0.0000000000  0.0000000000  -0.0000000000
atom   3.817247    0.000000   19.086234 Al  0.0   0.0  -0.0000000000  -0.0000000050  0.0000000050
atom   3.817247    3.817247   15.268987 Al  0.0   0.0  0.0000000000  0.0000000050  -0.0000000000
atom   0.000000    7.634493   0.000000 Al  0.0   0.0  0.0000000000  -0.0000000000  0.0000000000
atom   0.000000    11.451740   3.817247 Al  0.0   0.0  -0.0000000000  0.0000000000  0.0000000000
atom   3.817247    7.634493   3.817247 Al  0.0   0.0  -0.0000000000  0.0000000000  -0.0000000000
atom   3.817247    11.451740   0.000000 Al  0.0   0.0  0.0000000000  -0.0000000000  0.0000000000
atom   0.000000    7.634493   7.634493 Al  0.0   0.0  0.0000000000  -0.0000000000  -0.0000000050
atom   0.000000    11.451740   11.451740 Al  0.0   0.0  0.0000000050  -0.0000000000  -0.0000000000
atom   3.817247    7.634493   11.451740 Al  0.0   0.0  -0.0000000000  0.0000000000  0.0000000000
atom   3.817247    11.451740   7.634493 Al  0.0   0.0  -0.0000000000  0.0000000000  0.0000000000
atom   0.000000    7.634493   15.268987 Al  0.0   0.0  0.0000000050  -0.0000000000  0.0000000000
atom   0.000000    11.451740   19.086234 Al  0.0   0.0  0.0000000000  -0.0000000000  -0.0000000000
atom   3.817247    7.634493   19.086234 Al  0.0   0.0  -0.0000000000  -0.0000000000  -0.0000000000
atom   3.817247    11.451740   15.268987 Al  0.0   0.0  -0.0000000000  -0.0000000050  0.0000000000
atom   0.000000    15.268987   0.000000 Al  0.0   0.0  -0.0000000000  0.0000000000  0.0000000050
atom   0.000000    19.086234   3.817247 Al  0.0   0.0  -0.0000000000  -0.0000000050  0.0000000000
atom   3.817247    15.268987   3.817247 Al  0.0   0.0  -0.0000000000  -0.0000000000  -0.0000000000
atom   3.817247    19.086234   0.000000 Al  0.0   0.0  0.0000000000  -0.0000000000  -0.0000000000
atom   0.000000    15.268987   7.634493 Al  0.0   0.0  0.0000000000  0.0000000000  -0.0000000050
atom   0.000000    19.086234   11.451740 Al  0.0   0.0  -0.0000000000  0.0000000050  0.0000000000
atom   3.817247    15.268987   11.451740 Al  0.0   0.0  0.0000000050  -0.0000000000  0.0000000000
atom   3.817247    19.086234   7.634493 Al  0.0   0.0  0.0000000000  0.0000000000  -0.0000000000
atom   0.000000    15.268987   15.268987 Al  0.0   0.0  0.0000000000  0.0000000050  0.0000000000
atom   0.000000    19.086234   19.086234 Al  0.0   0.0  -0.0000000000  0.0000000000  -0.0000000000
atom   3.817247    15.268987   19.086234 Al  0.0   0.0  -0.0000000000  0.0000000050  -0.0000000000
atom   3.817247    19.086234   15.268987 Al  0.0   0.0  -0.0000000000  -0.0000000000  0.0000000000
atom   7.634493    0.000000   0.000000 Al  0.0   0.0  0.0000000000  -0.0000000000  0.0000000000
atom   7.634493    3.817247   3.817247 Al  0.0   0.0  0.0000000050  0.0000000000  -0.0000000050
atom   11.451740    0.000000   3.817247 Al  0.0   0.0  -0.0000000000  -0.0000000000  -0.0000000000
atom   11.451740    3.817247   0.000000 Al  0.0   0.0  0.0000000000  -0.0000000000  0.0000000000
atom   7.634493    0.000000   7.634493 Al  0.0   0.0  -0.0000000000  -0.0000000000  0.0000000000
atom   7.634493    3.817247   11.451740 Al  0.0   0.0  0.0000000000  -0.0000000000  0.0000000000
atom   11.451740    0.000000   11.451740 Al  0.0   0.0  -0.0000000050  0.0000000000  -0.0000000000
atom   11.451740    3.817247   7.634493 Al  0.0   0.0  0.0000000000  0.0000000000  -0.0000000000
atom   7.634493    0.000000   15.268987 Al  0.0   0.0  0.0000000050  0.0000000000  -0.0000000000
atom   7.634493    3.817247   19.086234 Al  0.0   0.0  -0.0000000000  0.0000000050  -0.0000000000
atom   11.451740    0.000000   19.086234 Al  0.0   0.0  -0.0000000000  -0.0000000050  0.0000000000
atom   11.451740    3.817247   15.268987 Al  0.0   0.0  -0.0000000000  0.0000000000  -0.0000000000
atom   7.634493    7.634493   0.000000 Al  0.0   0.0  -0.0000000000  -0.0000000000  0.0000000000
atom   7.634493    11.451740   3.817247 Al  0.0   0.0  0.0000000000  -0.0000000000  0.0000000000
atom   11.451740    7.634493   3.817247 Al  0.0   0.0  -0.0000000000  -0.0000000000  0.0000000000
atom   11.451740    11.451740   0.000000 Al  0.0   0.0  0.0000000000  -0.0000000000  -0.0000000000
atom   7.634493    7.634493   7.634493 Al  0.0   0.0  0.0000000000  0.0000000000  -0.0000000000