begin
comment uuid: adff6699-c043-4a99-bd00-4d83e1f396bc
lattice     13.8592987066     0.0000009081    -0.0000007945
lattice     -6.9296485669    12.0025023008     0.0000034610
lattice     -0.0000012819     0.0000055897    21.9782602740
atom      3.4397835705     9.2632994991     2.0368763071   Mg  0.0 0.0      -0.0000001414    -0.0000007076     0.0000000672
atom     -2.3764859354    11.9426277808     2.0368730128   Mg  0.0 0.0      -0.0000000705    -0.0000001335    -0.0000000010
atom     -1.7887313759     5.5659094071     2.0368916120   Mg  0.0 0.0      -0.0000000216     0.0000001308    -0.0000004450
atom      2.8458546009     4.5979457853     5.8309824482   Mg  0.0 0.0       0.0000003773    -0.0000001253     0.0000000844
atom      8.8904148228     1.7584416444     5.8309854373   Mg  0.0 0.0      -0.0000000057     0.0000002878     0.0000001195
atom      8.3272043229     8.4129182616     5.8309942021   Mg  0.0 0.0       0.0000003385     0.0000001813    -0.0000000100
atom      3.4397808141     9.2632761359     9.6251039185   Mg  0.0 0.0      -0.0000001730     0.0000000192     0.0000000524
atom     -2.3764871889    11.9426098892     9.6250963961   Mg  0.0 0.0      -0.0000005593     0.0000002307     0.0000000296
atom     -1.7887459568     5.5659105517     9.6251016418   Mg  0.0 0.0      -0.0000000117    -0.0000004463    -0.0000001122
atom      3.0544858279     4.7992362942    13.1406358830   Mg  0.0 0.0       0.0000001995    -0.0000000134    -0.0000004435
atom      8.6117312875     1.8384579391    13.1406227650   Mg  0.0 0.0       0.0000005663     0.0000002635    -0.0000002141
atom      8.3972365030     8.1315894603    13.1406185075   Mg  0.0 0.0       0.0000000467     0.0000002791     0.0000000867
atom      3.9867117427     9.7226438049    16.8201237707   Mg  0.0 0.0      -0.0000000209    -0.0000001669    -0.0000001551
atom      3.8819201790     0.1840942767    16.8201275616   Mg  0.0 0.0      -0.0000005040    -0.0000001135    -0.0000000733
atom     -1.6643885903     4.8625546014    16.8201154893   Mg  0.0 0.0       0.0000000574     0.0000004288     0.0000001294
atom      3.0545173549     4.7992705289    20.4996150822   Mg  0.0 0.0      -0.0000007064    -0.0000002400     0.0000001588
atom      8.6117879986     1.8384781760    20.4996264709   Mg  0.0 0.0      -0.0000003974    -0.0000002525     0.0000001773
atom      8.3972478435     8.1315938191    20.4996077746   Mg  0.0 0.0       0.0000002646     0.0000003155     0.0000004297
atom     -0.2418107361     0.9222635701     3.4302999888   Si  0.0 0.0       0.0000000493     0.0000004101     0.0000009847
atom      6.6878360183     4.9231134057     2.2849874210   Si  0.0 0.0       0.0000000672    -0.0000003310     0.0000005676
atom     -0.2418224208     8.9239386501     5.8309894217   Si  0.0 0.0       0.0000001758    -0.0000000484    -0.0000001267
atom     -0.2418166992     0.9222659439     8.2316774628   Si  0.0 0.0       0.0000000143     0.0000001633    -0.0000005486
atom     -0.2418448749     0.9222635263    12.9121825102   Si  0.0 0.0       0.0000007068    -0.0000000713     0.0000002430
atom      6.6878138304     4.9230977164     9.3769882178   Si  0.0 0.0       0.0000002889    -0.0000001106    -0.0000001887
atom     -0.2418178246     8.9239210233    13.4488558489   Si  0.0 0.0      -0.0000002289     0.0000002242    -0.0000000237
atom     -0.2417880308     0.9222822032    20.7280590277   Si  0.0 0.0      -0.0000002333    -0.0000002656    -0.0000004794
atom      6.6878401438     4.9231049398    16.8201270554   Si  0.0 0.0       0.0000000123    -0.0000000246    -0.0000006318
atom     -0.2418063987     8.9239366966    20.1913848517   Si  0.0 0.0      -0.0000000906     0.0000001162     0.0000003227
energy -359.750897346
charge 0.0000
end
