begin
comment uuid: adff6699-c043-4a99-bd00-4d83e1f396bc
lattice     14.0026270438     0.0000121395    -0.0000105237
lattice     -7.0013030088    12.1266529774    -0.0000041562
lattice     -0.0000170999    -0.0000176978    22.5715907776
atom      4.1949771524     9.9324062701     2.2263730045   Mg  0.0 0.0       0.0000003494     0.0000003214     0.0000004236
atom      5.4283090206     0.6378152877     2.2264190540   Mg  0.0 0.0       0.0000001264    -0.0000004268     0.0000002688
atom     -1.1415818567     6.3532840880     2.2263706818   Mg  0.0 0.0      -0.0000005243    -0.0000003472     0.0000002424
atom      3.7806409811     5.5201975569     5.9459632992   Mg  0.0 0.0       0.0000000995    -0.0000002222     0.0000001564
atom      9.4566549326     2.4849975361     5.9459274386   Mg  0.0 0.0      -0.0000002276    -0.0000004051    -0.0000000454
atom     -4.7554731933     8.9181370493     5.9460549592   Mg  0.0 0.0      -0.0000001900    -0.0000003085    -0.0000004055
atom      4.6754489242    10.4219101903     9.6422533877   Mg  0.0 0.0       0.0000003307     0.0000010126     0.0000001485
atom      4.7640642365     0.8090597442     9.6422618688   Mg  0.0 0.0       0.0000001424     0.0000001853    -0.0000004397
atom     -0.9578244013     5.6920479356     9.6422096802   Mg  0.0 0.0       0.0000000877     0.0000007358     0.0000002282
atom      3.7805636248     5.5201345223    13.3384861827   Mg  0.0 0.0       0.0000007819     0.0000001252     0.0000003998
atom      9.4565874506     2.4849319068    13.3386008380   Mg  0.0 0.0       0.0000009054     0.0000003838    -0.0000012696
atom     -4.7555038840     8.9180649652    13.3384663533   Mg  0.0 0.0      -0.0000002739    -0.0000000747     0.0000001535
atom      4.1949263281     9.9323497223    17.0581187072   Mg  0.0 0.0       0.0000000408     0.0000002219    -0.0000009764
atom      5.4282272004     0.6377341917    17.0580459057   Mg  0.0 0.0       0.0000006011    -0.0000000737     0.0000001007
atom     -1.1416383555     6.3532016751    17.0581441293   Mg  0.0 0.0       0.0000000671     0.0000004387    -0.0000005894
atom      3.6746179776     5.3065265194    20.9280591994   Mg  0.0 0.0      -0.0000003943    -0.0000005817    -0.0000000117
atom      9.6945650319     2.5001150812    20.9280159738   Mg  0.0 0.0      -0.0000003734    -0.0000008721     0.0000005100
atom     -4.8875753563     9.1168010691    20.9280324201   Mg  0.0 0.0      -0.0000002743    -0.0000003165     0.0000002210
atom      0.4935333826     1.5988922687     5.6291802580   Si  0.0 0.0      -0.0000006810    -0.0000003084     0.0000003110
atom      7.4948088402     5.6411725984     2.0714031540   Si  0.0 0.0      -0.0000004466    -0.0000000404     0.0000006769
atom      0.4934807367     9.6833479143     6.1256887672   Si  0.0 0.0       0.0000003030    -0.0000009802     0.0000010762
atom      0.4934758266     1.5988170528    13.6553939071   Si  0.0 0.0      -0.0000005208    -0.0000002560    -0.0000001988
atom      0.4933809463     1.5988996086    18.3728668412   Si  0.0 0.0       0.0000002487    -0.0000000768     0.0000001984
atom      7.4948182770     5.6409960895     9.6422448627   Si  0.0 0.0      -0.0000006413     0.0000010659     0.0000001895
atom      0.4934364262     9.6832534277    13.1587556064   Si  0.0 0.0       0.0000000971     0.0000001360     0.0000006125
atom      0.4934326056     1.5989505948     0.9117133218   Si  0.0 0.0      -0.0000000729    -0.0000000737    -0.0000004258
atom      7.4947201617     5.6411030904    17.2130787283   Si  0.0 0.0       0.0000003389     0.0000004545    -0.0000006768
atom      0.4934254676     9.6833707964    20.9280510123   Si  0.0 0.0       0.0000001003     0.0000002830    -0.0000008782
energy -359.766193319
charge 0.0000
end
