begin
comment uuid: adff6699-c043-4a99-bd00-4d83e1f396bc
lattice     13.9513707918     0.0000001040     0.0000004533
lattice     -6.9756853059    12.0822411992    -0.0000002797
lattice      0.0000007703    -0.0000001040    22.7192993165
atom      3.6685812217     8.1991172084     1.8892226854   Mg  0.0 0.0      -0.0000004536     0.0000000425     0.0000001666
atom     -1.9592489572    11.1597667978     1.8892225775   Mg  0.0 0.0       0.0000002042    -0.0000004112     0.0000001654
atom     -1.7093317421     4.8055983918     1.8892225442   Mg  0.0 0.0       0.0000002603     0.0000003691     0.0000001679
atom      2.9266133376     3.3761498969     5.6798248517   Mg  0.0 0.0      -0.0000004018     0.0000003202     0.0000000013
atom      9.5642328624     0.8464461444     5.6798250802   Mg  0.0 0.0      -0.0000000752    -0.0000005055    -0.0000000014
atom      8.4362110115     7.8596451587     5.6798250118   Mg  0.0 0.0       0.0000004728     0.0000001874     0.0000000001
atom      3.6685814801     8.1991171743     9.4704270283   Mg  0.0 0.0      -0.0000004557     0.0000000416    -0.0000001709
atom     -1.9592486989    11.1597667619     9.4704267382   Mg  0.0 0.0       0.0000002027    -0.0000004095    -0.0000001598
atom     -1.7093314855     4.8055983574     9.4704268478   Mg  0.0 0.0       0.0000002609     0.0000003690    -0.0000001692
atom      3.3071049468     3.8831239212    13.2488723469   Mg  0.0 0.0       0.0000004557    -0.0000000416     0.0000001709
atom      8.9349351261     0.9224743348    13.2488726371   Mg  0.0 0.0      -0.0000002027     0.0000004095     0.0000001598
atom      8.6850179113     7.2766427392    13.2488725273   Mg  0.0 0.0      -0.0000002609    -0.0000003690     0.0000001692
atom      4.0490730863     8.7060911966    17.0394745247   Mg  0.0 0.0       0.0000004018    -0.0000003202    -0.0000000013
atom     -2.5885464319    11.2357949508    17.0394742962   Mg  0.0 0.0       0.0000000752     0.0000005055     0.0000000014
atom     -1.4605245859     4.2225959414    17.0394743646   Mg  0.0 0.0      -0.0000004728    -0.0000001874    -0.0000000001
atom      3.3071052052     3.8831238870    20.8300766921   Mg  0.0 0.0       0.0000004536    -0.0000000425    -0.0000001666
atom      8.9349353843     0.9224742989    20.8300768000   Mg  0.0 0.0      -0.0000002042     0.0000004113    -0.0000001654
atom      8.6850181679     7.2766427047    20.8300768334   Mg  0.0 0.0      -0.0000002603    -0.0000003691    -0.0000001679
atom      0.0000002737    -0.0000000479     2.2561127952   Si  0.0 0.0      -0.0000000066     0.0000000006    -0.0000002382
atom      6.9756855474     4.0274138251     2.0717639385   Si  0.0 0.0       0.0000000015    -0.0000000059    -0.0000005832
atom      0.0000003126     8.0548273838     5.6798247370   Si  0.0 0.0       0.0000000047     0.0000000026    -0.0000000000
atom      0.0000005079    -0.0000000796     9.1035367482   Si  0.0 0.0      -0.0000000097     0.0000000011     0.0000002383
atom      0.0000004328    -0.0000001275    13.6157624632   Si  0.0 0.0       0.0000000097    -0.0000000011    -0.0000002383
atom      6.9756857906     4.0274137920     9.2878860240   Si  0.0 0.0       0.0000000036    -0.0000000058     0.0000005832
atom      0.0000006360     8.0548273043    13.4314133507   Si  0.0 0.0      -0.0000000036     0.0000000058    -0.0000005832
atom      0.0000006670    -0.0000001592    20.4631863988   Si  0.0 0.0       0.0000000066    -0.0000000005     0.0000002382
atom      6.9756861140     4.0274137125    17.0394746394   Si  0.0 0.0      -0.0000000047    -0.0000000026     0.0000000000
atom      0.0000008792     8.0548272712    20.6475354395   Si  0.0 0.0      -0.0000000015     0.0000000059     0.0000005832
energy -359.766054693
charge 0.0000
end
