begin
comment uuid: adff6699-c043-4a99-bd00-4d83e1f396bc
lattice     13.5115416150     0.0000000000     0.0000000000
lattice     -6.7557708075    11.7013382830     0.0000000000
lattice      0.0000000000     0.0000000000    22.9601721150
atom      3.5081128524     7.9274905480     1.8968058355   Mg  0.0 0.0       0.0000008105    -0.0000003820    -0.0000006862
atom     -1.8636937826    10.7757077521     1.8968057953   Mg  0.0 0.0      -0.0000000744     0.0000008928    -0.0000006862
atom     -1.6444189086     4.6994782182     1.8968058903   Mg  0.0 0.0      -0.0000007361    -0.0000005108    -0.0000006863
atom      2.8025975156     3.1500010852     5.7400429713   Mg  0.0 0.0      -0.0000009369     0.0000013650    -0.0000000000
atom      9.3822619302     0.8521200205     5.7400429713   Mg  0.0 0.0      -0.0000007136    -0.0000014939    -0.0000000000
atom      8.0824531111     7.6992171547     5.7400429713   Mg  0.0 0.0       0.0000016508     0.0000001288    -0.0000000000
atom      3.5081128524     7.9274905477     9.5832801073   Mg  0.0 0.0       0.0000008105    -0.0000003820     0.0000006862
atom     -1.8636937824    10.7757077522     9.5832801475   Mg  0.0 0.0      -0.0000000744     0.0000008928     0.0000006862
atom     -1.6444189088     4.6994782184     9.5832800525   Mg  0.0 0.0      -0.0000007361    -0.0000005108     0.0000006863
atom      3.2476581199     3.7738476324    13.3768918913   Mg  0.0 0.0      -0.0000008105     0.0000003821    -0.0000006862
atom      8.6194647583     0.9256304338    13.3768918501   Mg  0.0 0.0       0.0000000743    -0.0000008929    -0.0000006862
atom      8.4001898784     7.0018599664    13.3768919436   Mg  0.0 0.0       0.0000007361     0.0000005108    -0.0000006863
atom      3.9531734525     8.5513370921    17.2201290287   Mg  0.0 0.0       0.0000009369    -0.0000013650     0.0000000000
atom     -2.6264909505    10.8492181581    17.2201290287   Mg  0.0 0.0       0.0000007136     0.0000014940     0.0000000000
atom     -1.3266821418     4.0021210353    17.2201290287   Mg  0.0 0.0      -0.0000016507    -0.0000001288     0.0000000000
atom      3.2476581199     3.7738476322    21.0633661659   Mg  0.0 0.0      -0.0000008105     0.0000003821     0.0000006862
atom      8.6194647585     0.9256304339    21.0633662071   Mg  0.0 0.0       0.0000000742    -0.0000008929     0.0000006862
atom      8.4001898782     7.0018599666    21.0633661136   Mg  0.0 0.0       0.0000007361     0.0000005108     0.0000006863
atom      0.0000000322     0.0000000095     2.2461131000   Si  0.0 0.0       0.0000000000    -0.0000000002     0.0000002758
atom      6.7557708701     3.9004460713     2.1358616578   Si  0.0 0.0       0.0000000001    -0.0000000000    -0.0000005562
atom      0.0000000592     7.8008922113     5.7400429717   Si  0.0 0.0       0.0000000000    -0.0000000000    -0.0000000000
atom      0.0000000322     0.0000000095     9.2339728400   Si  0.0 0.0       0.0000000000    -0.0000000002    -0.0000002754
atom      0.0000001325    -0.0000001081    13.7261991717   Si  0.0 0.0       0.0000000000     0.0000000001     0.0000002754
atom      6.7557708701     3.9004460713     9.3442242847   Si  0.0 0.0       0.0000000001    -0.0000000000     0.0000005562
atom      0.0000001025     7.8008921119    13.6159477128   Si  0.0 0.0      -0.0000000001     0.0000000000    -0.0000005562
atom      0.0000001325    -0.0000001081    20.7140588883   Si  0.0 0.0       0.0000000000     0.0000000001    -0.0000002757
atom      6.7557709137     3.9004459717    17.2201290283   Si  0.0 0.0      -0.0000000000     0.0000000000     0.0000000000
atom      0.0000001025     7.8008921119    20.8243103447   Si  0.0 0.0      -0.0000000001     0.0000000000     0.0000005562
energy -359.747649378
charge 0.0000
end
