begin
comment 40 atoms, species Al40
lattice    177.6342558287     0.0000000000     0.0000000000
lattice      0.0000000000    11.3383567550     0.0000000000
lattice      0.0000000000     0.0000000000    11.3383567550
atom      0.1511781203     0.0000000000     0.0000000000   Al  0.0 0.0   -3.90988513e-02  0.00000000e+00 -9.71568024e-18
atom      4.4408563957     0.0000000000     0.0000000000   Al  0.0 0.0    2.21178259e-02  0.00000000e+00 -2.15904005e-18
atom      8.8817127914     0.0000000000     0.0000000000   Al  0.0 0.0   -3.75568511e-04  0.00000000e+00  4.31808011e-18
atom     13.3225691872     0.0000000000     0.0000000000   Al  0.0 0.0   -2.27571315e-04  0.00000000e+00  2.15904005e-18
atom     17.7634255829     0.0000000000     0.0000000000   Al  0.0 0.0   -1.86388471e-04  0.00000000e+00  2.15904005e-18
atom     22.2042819786     0.0000000000     0.0000000000   Al  0.0 0.0    6.14560999e-05  0.00000000e+00  2.15904005e-18
atom     26.6451383743     0.0000000000     0.0000000000   Al  0.0 0.0    1.51279977e-05  0.00000000e+00  2.15904005e-18
atom     31.0859947700     0.0000000000     0.0000000000   Al  0.0 0.0    1.25243950e-06  0.00000000e+00  4.31808011e-18
atom     35.5268511657     0.0000000000     0.0000000000   Al  0.0 0.0   -9.46755905e-08  0.00000000e+00  0.00000000e+00
atom     39.9677075615     0.0000000000     0.0000000000   Al  0.0 0.0   -1.01550904e-15  0.00000000e+00  4.31808011e-18
atom     44.4085639572     0.0000000000     0.0000000000   Al  0.0 0.0    1.90818749e-15  0.00000000e+00  2.15904005e-18
atom     48.8494203529     0.0000000000     0.0000000000   Al  0.0 0.0   -1.94375011e-15  0.00000000e+00  0.00000000e+00
atom     53.2902767486     0.0000000000     0.0000000000   Al  0.0 0.0    1.00329398e-15  0.00000000e+00  4.31808011e-18
atom     57.7311331443     0.0000000000     0.0000000000   Al  0.0 0.0   -9.58472136e-16  4.31808011e-18  0.00000000e+00
atom     62.1719895400     0.0000000000     0.0000000000   Al  0.0 0.0    9.51277680e-16  0.00000000e+00 -2.15904005e-18
atom     66.6128459358     0.0000000000     0.0000000000   Al  0.0 0.0   -9.63996782e-16  0.00000000e+00  2.15904005e-18
atom     71.0537023315     0.0000000000     0.0000000000   Al  0.0 0.0   -1.60032677e-18  0.00000000e+00  0.00000000e+00
atom     75.4945587272     0.0000000000     0.0000000000   Al  0.0 0.0    1.90848072e-15  4.31808011e-18  0.00000000e+00
atom     79.9354151229     0.0000000000     0.0000000000   Al  0.0 0.0   -1.90962230e-15 -4.31808011e-18  0.00000000e+00
atom     84.3762715186     0.0000000000     0.0000000000   Al  0.0 0.0    2.33746386e-17  0.00000000e+00  2.15904005e-18
atom     88.8171279143     0.0000000000     0.0000000000   Al  0.0 0.0    1.89597670e-15  4.31808011e-18  2.15904005e-18
atom     93.2579843101     0.0000000000     0.0000000000   Al  0.0 0.0    8.21767088e-17 -4.31808011e-18  0.00000000e+00
atom     97.6988407058     0.0000000000     0.0000000000   Al  0.0 0.0   -3.76002713e-15 -4.31808011e-18 -8.63616021e-18
atom    102.1396971015     0.0000000000     0.0000000000   Al  0.0 0.0    3.74912443e-15  0.00000000e+00  2.15904005e-18
atom    106.5805534972     0.0000000000     0.0000000000   Al  0.0 0.0   -1.99416302e-15  0.00000000e+00 -2.15904005e-18
atom    111.0214098929     0.0000000000     0.0000000000   Al  0.0 0.0    1.93659194e-15  0.00000000e+00  0.00000000e+00
atom    115.4622662886     0.0000000000     0.0000000000   Al  0.0 0.0   -1.84574829e-15  0.00000000e+00  0.00000000e+00
atom    119.9031226844     0.0000000000     0.0000000000   Al  0.0 0.0    5.24838627e-17  0.00000000e+00  0.00000000e+00
atom    124.3439790801     0.0000000000     0.0000000000   Al  0.0 0.0   -1.95521974e-15  0.00000000e+00  0.00000000e+00
atom    128.7848354758     0.0000000000     0.0000000000   Al  0.0 0.0    5.48182887e-15  0.00000000e+00 -6.47712016e-18
atom    133.2256918715     0.0000000000     0.0000000000   Al  0.0 0.0    7.13053281e-17  0.00000000e+00  0.00000000e+00
atom    137.6665482672     0.0000000000     0.0000000000   Al  0.0 0.0   -7.26912466e-15  0.00000000e+00  0.00000000e+00
atom    142.1074046629     0.0000000000     0.0000000000   Al  0.0 0.0   -8.06934545e-08  0.00000000e+00  0.00000000e+00
atom    146.5482610587     0.0000000000     0.0000000000   Al  0.0 0.0    1.05505570e-06  0.00000000e+00  4.31808011e-18
atom    150.9891174544     0.0000000000     0.0000000000   Al  0.0 0.0    1.39679232e-05  0.00000000e+00 -6.47712016e-18
atom    155.4299738501     0.0000000000     0.0000000000   Al  0.0 0.0    5.80058914e-05 -4.31808011e-18 -6.47712016e-18
atom    159.8708302458     0.0000000000     0.0000000000   Al  0.0 0.0   -1.65685095e-04 -4.31808011e-18 -2.15904005e-18
atom    164.3116866415     0.0000000000     0.0000000000   Al  0.0 0.0   -2.26779053e-04 -4.31808011e-18 -4.31808011e-18
atom    168.7525430372     0.0000000000     0.0000000000   Al  0.0 0.0   -2.63696598e-04  0.00000000e+00 -5.39760013e-18
atom    173.1933994330     0.0000000000     0.0000000000   Al  0.0 0.0    1.82760244e-02 -2.15904005e-18 -6.47712016e-18
energy -7.771937362510779e+02
charge 0.0000
end
