
     Program PWSCF v.6.3 starts on 22Feb2020 at  7:32:19 

     This program is part of the open-source Quantum ESPRESSO suite
     for quantum simulation of materials; please cite
         "P. Giannozzi et al., J. Phys.:Condens. Matter 21 395502 (2009);
         "P. Giannozzi et al., J. Phys.:Condens. Matter 29 465901 (2017);
          URL http://www.quantum-espresso.org", 
     in publications or presentations arising from this work. More details at
     http://www.quantum-espresso.org/quote

 *** WARNING: using old-style file format, will disappear from next version ***

     Parallel version (MPI & OpenMP), running on      36 processor cores
     Number of MPI processes:                36
     Threads/MPI process:                     1

     MPI processes distributed on     1 nodes
     K-points division:     npool     =       4
     R & G space division:  proc/nbgrp/npool/nimage =       9
     Reading input from aiida.in
Warning: card &IONS ignored
Warning: card   !PRESS_CONV_THR = 0.05                 ! JUST FOR VOLUME RELAXATIONS ignored
Warning: card / ignored

     Current dimensions of program PWSCF are:
     Max number of different atomic species (ntypx) = 10
     Max number of k-points (npk) =  40000
     Max angular momentum in pseudopotentials (lmaxx) =  3
               file Al.pbe-n-kjpaw_psl.1.0.0.UPF: wavefunction(s)  3S 3P renormalized

     Subspace diagonalization in iterative solution of the eigenvalue problem:
     one sub-group per band group will be used
     scalapack distributed-memory algorithm (size of sub-group:  2*  2 procs)

 
     Parallelization info
     --------------------
     sticks:   dense  smooth     PW     G-vecs:    dense   smooth      PW
     Min        3324    1330    347               432816   109512   14645
     Max        3325    1331    348               432821   109515   14652
     Sum       29921   11977   3125              3895379   985619  131827
 


     bravais-lattice index     =            0
     lattice parameter (alat)  =      30.6665  a.u.
     unit-cell volume          =   28839.7502 (a.u.)^3
     number of atoms/cell      =          256
     number of atomic types    =            2
     number of electrons       =       770.00
     number of Kohn-Sham states=          462
     kinetic-energy cutoff     =      40.0000  Ry
     charge density cutoff     =     400.0000  Ry
     convergence threshold     =      1.0E-12
     mixing beta               =       0.4000
     number of iterations used =            8  local-TF  mixing
     Exchange-correlation      = SLA PW PBX PBC ( 1  4  3  4 0 0)

     celldm(1)=  30.666473  celldm(2)=   0.000000  celldm(3)=   0.000000
     celldm(4)=   0.000000  celldm(5)=   0.000000  celldm(6)=   0.000000

     crystal axes: (cart. coord. in units of alat)
               a(1) = (   1.000000   0.000000   0.000000 )  
               a(2) = (   0.000000   1.000000   0.000000 )  
               a(3) = (   0.000000   0.000000   1.000000 )  

     reciprocal axes: (cart. coord. in units 2 pi/alat)
               b(1) = (  1.000000  0.000000  0.000000 )  
               b(2) = (  0.000000  1.000000  0.000000 )  
               b(3) = (  0.000000  0.000000  1.000000 )  


     PseudoPot. # 1 for Si read from file:
     /users/aglensk/Dropbox/Albert/scripts/dotfiles/scripts/potentials/quantum_espresso/pseudo_SSSPefV1.1_alalloy/Si.pbe-n-rrkjus_psl.1.0.0.UPF
     MD5 check sum: 0b0bb1205258b0d07b9f9672cf965d36
     Pseudo is Ultrasoft + core correction, Zval =  4.0
     Generated using "atomic" code by A. Dal Corso v.5.1
     Using radial grid of 1141 points,  6 beta functions with: 
                l(1) =   0
                l(2) =   0
                l(3) =   1
                l(4) =   1
                l(5) =   2
                l(6) =   2
     Q(r) pseudized with 0 coefficients 


     PseudoPot. # 2 for Al read from file:
     /users/aglensk/Dropbox/Albert/scripts/dotfiles/scripts/potentials/quantum_espresso/pseudo_SSSPefV1.1_alalloy/Al.pbe-n-kjpaw_psl.1.0.0.UPF
     MD5 check sum: cfc449ca30b5f3223ec38ddd88ac046d
     Pseudo is Projector augmented-wave + core cor, Zval =  3.0
     Generated using "atomic" code by A. Dal Corso v.5.1
     Shape of augmentation charge: PSQ
     Using radial grid of 1135 points,  6 beta functions with: 
                l(1) =   0
                l(2) =   0
                l(3) =   1
                l(4) =   1
                l(5) =   2
                l(6) =   2
     Q(r) pseudized with 0 coefficients 


     atomic species   valence    mass     pseudopotential
        Si             4.00    28.08500     Si( 1.00)
        Al             3.00    26.98154     Al( 1.00)

     No symmetry found


                                    s                        frac. trans.

      isym =  1     identity                                     

 cryst.   s( 1) = (     1          0          0      )
                  (     0          1          0      )
                  (     0          0          1      )

 cart.    s( 1) = (  1.0000000  0.0000000  0.0000000 )
                  (  0.0000000  1.0000000  0.0000000 )
                  (  0.0000000  0.0000000  1.0000000 )


   Cartesian axes

     site n.     atom                  positions (alat units)
         1           Si  tau(   1) = (   0.9995856   0.9995856   0.0000000  )
         2           Al  tau(   2) = (   0.1239927   0.0010074   0.1229423  )
         3           Si  tau(   3) = (   0.1254123   0.1254123   0.0000000  )
         4           Al  tau(   4) = (   0.0010074   0.1239927   0.1229423  )
         5           Al  tau(   5) = (   0.0000199   0.0000199   0.2495267  )
         6           Al  tau(   6) = (   0.1249802   0.1249802   0.2495266  )
         7           Al  tau(   7) = (   0.1249925   0.0000075   0.3748865  )
         8           Al  tau(   8) = (   0.0000075   0.1249925   0.3748865  )
         9           Al  tau(   9) = (   0.9999913   0.9999913   0.5000000  )
        10           Al  tau(  10) = (   0.1250088   0.1250088   0.5000000  )
        11           Al  tau(  11) = (   0.1249925   0.0000075   0.6251135  )
        12           Al  tau(  12) = (   0.0000075   0.1249925   0.6251135  )
        13           Al  tau(  13) = (   0.0000199   0.0000199   0.7504733  )
        14           Al  tau(  14) = (   0.1249802   0.1249802   0.7504734  )
        15           Al  tau(  15) = (   0.1239927   0.0010074   0.8770578  )
        16           Al  tau(  16) = (   0.0010074   0.1239927   0.8770578  )
        17           Al  tau(  17) = (   0.0007816   0.2489246   0.0000000  )
        18           Al  tau(  18) = (   0.1250012   0.3746654   0.0000000  )
        19           Al  tau(  19) = (   0.1249815   0.2492424   0.1242737  )
        20           Al  tau(  20) = (   0.0000096   0.3748689   0.1249808  )
        21           Al  tau(  21) = (   0.9999990   0.2498364   0.2497566  )
        22           Al  tau(  22) = (   0.1249838   0.3748620   0.2498564  )
        23           Al  tau(  23) = (   0.1249872   0.2499760   0.3749379  )
        24           Al  tau(  24) = (   0.0000107   0.3749905   0.3750028  )
        25           Al  tau(  25) = (   0.9999922   0.2499860   0.5000000  )
        26           Al  tau(  26) = (   0.1249997   0.3749892   0.5000000  )
        27           Al  tau(  27) = (   0.1249872   0.2499760   0.6250621  )
        28           Al  tau(  28) = (   0.0000107   0.3749905   0.6249972  )
        29           Al  tau(  29) = (   0.9999990   0.2498364   0.7502434  )
        30           Al  tau(  30) = (   0.1249838   0.3748620   0.7501436  )
        31           Al  tau(  31) = (   0.1249815   0.2492424   0.8757263  )
        32           Al  tau(  32) = (   0.0000096   0.3748689   0.8750192  )
        33           Al  tau(  33) = (   0.0000079   0.4999506   0.0000000  )
        34           Al  tau(  34) = (   0.1249921   0.6250493   0.0000000  )
        35           Al  tau(  35) = (   0.1250072   0.4999555   0.1250017  )
        36           Al  tau(  36) = (   0.9999929   0.6250445   0.1250017  )
        37           Al  tau(  37) = (   0.0000078   0.4999981   0.2499674  )
        38           Al  tau(  38) = (   0.1249923   0.6250019   0.2499675  )
        39           Al  tau(  39) = (   0.1250005   0.5000143   0.3750236  )
        40           Al  tau(  40) = (   0.9999997   0.6249858   0.3750235  )
        41           Al  tau(  41) = (   0.9999982   0.5000138   0.5000000  )
        42           Al  tau(  42) = (   0.1250020   0.6249862   0.5000000  )
        43           Al  tau(  43) = (   0.1250005   0.5000143   0.6249764  )
        44           Al  tau(  44) = (   0.9999997   0.6249858   0.6249765  )
        45           Al  tau(  45) = (   0.0000078   0.4999981   0.7500326  )
        46           Al  tau(  46) = (   0.1249923   0.6250019   0.7500325  )
        47           Al  tau(  47) = (   0.1250072   0.4999555   0.8749983  )
        48           Al  tau(  48) = (   0.9999929   0.6250445   0.8749983  )
        49           Al  tau(  49) = (   0.9999989   0.7503345   0.0000000  )
        50           Al  tau(  50) = (   0.1242186   0.8760754   0.0000000  )
        51           Al  tau(  51) = (   0.1249905   0.7501311   0.1249809  )
        52           Al  tau(  52) = (   0.0000186   0.8757576   0.1242739  )
        53           Al  tau(  53) = (   0.0000163   0.7501380   0.2498565  )
        54           Al  tau(  54) = (   0.1250011   0.8751636   0.2497567  )
        55           Al  tau(  55) = (   0.1249894   0.7500095   0.3750029  )
        56           Al  tau(  56) = (   0.0000129   0.8750240   0.3749380  )
        57           Al  tau(  57) = (   0.0000005   0.7500109   0.5000000  )
        58           Al  tau(  58) = (   0.1250078   0.8750140   0.5000000  )
        59           Al  tau(  59) = (   0.1249894   0.7500095   0.6249971  )
        60           Al  tau(  60) = (   0.0000129   0.8750240   0.6250620  )
        61           Al  tau(  61) = (   0.0000163   0.7501380   0.7501435  )
        62           Al  tau(  62) = (   0.1250011   0.8751636   0.7502433  )
        63           Al  tau(  63) = (   0.1249905   0.7501311   0.8750191  )
        64           Al  tau(  64) = (   0.0000186   0.8757576   0.8757262  )
        65           Al  tau(  65) = (   0.2489246   0.0007816   0.0000000  )
        66           Al  tau(  66) = (   0.3746654   0.1250012   0.0000000  )
        67           Al  tau(  67) = (   0.3748689   0.0000096   0.1249808  )
        68           Al  tau(  68) = (   0.2492424   0.1249815   0.1242737  )
        69           Al  tau(  69) = (   0.2498364   0.9999990   0.2497566  )
        70           Al  tau(  70) = (   0.3748620   0.1249838   0.2498564  )
        71           Al  tau(  71) = (   0.3749905   0.0000107   0.3750028  )
        72           Al  tau(  72) = (   0.2499760   0.1249872   0.3749379  )
        73           Al  tau(  73) = (   0.2499860   0.9999922   0.5000000  )
        74           Al  tau(  74) = (   0.3749892   0.1249997   0.5000000  )
        75           Al  tau(  75) = (   0.3749905   0.0000107   0.6249972  )
        76           Al  tau(  76) = (   0.2499760   0.1249872   0.6250621  )
        77           Al  tau(  77) = (   0.2498364   0.9999990   0.7502434  )
        78           Al  tau(  78) = (   0.3748620   0.1249838   0.7501436  )
        79           Al  tau(  79) = (   0.3748689   0.0000096   0.8750192  )
        80           Al  tau(  80) = (   0.2492424   0.1249815   0.8757263  )
        81           Al  tau(  81) = (   0.2489575   0.2489575   0.0000000  )
        82           Al  tau(  82) = (   0.3749017   0.3749017   0.0000000  )
        83           Al  tau(  83) = (   0.3748631   0.2499624   0.1249480  )
        84           Al  tau(  84) = (   0.2499624   0.3748631   0.1249480  )
        85           Al  tau(  85) = (   0.2500417   0.2500417   0.2499684  )
        86           Al  tau(  86) = (   0.3750359   0.3750359   0.2500304  )
        87           Al  tau(  87) = (   0.3749855   0.2499835   0.3749961  )
        88           Al  tau(  88) = (   0.2499835   0.3749855   0.3749961  )
        89           Al  tau(  89) = (   0.2500070   0.2500070   0.5000000  )
        90           Al  tau(  90) = (   0.3749841   0.3749841   0.5000000  )
        91           Al  tau(  91) = (   0.3749855   0.2499835   0.6250039  )
        92           Al  tau(  92) = (   0.2499835   0.3749855   0.6250039  )
        93           Al  tau(  93) = (   0.2500417   0.2500417   0.7500316  )
        94           Al  tau(  94) = (   0.3750359   0.3750359   0.7499696  )
        95           Al  tau(  95) = (   0.3748631   0.2499624   0.8750520  )
        96           Al  tau(  96) = (   0.2499624   0.3748631   0.8750520  )
        97           Al  tau(  97) = (   0.2499705   0.4999464   0.0000000  )
        98           Al  tau(  98) = (   0.3749976   0.6249904   0.0000000  )
        99           Al  tau(  99) = (   0.3750014   0.5000060   0.1250007  )
       100           Al  tau( 100) = (   0.2499909   0.6250018   0.1249937  )
       101           Al  tau( 101) = (   0.2499908   0.4999923   0.2499841  )
       102           Al  tau( 102) = (   0.3750006   0.6250013   0.2499966  )
       103           Al  tau( 103) = (   0.3749901   0.5000015   0.3749898  )
       104           Al  tau( 104) = (   0.2500002   0.6249953   0.3750135  )
       105           Al  tau( 105) = (   0.2500054   0.5000107   0.5000000  )
       106           Al  tau( 106) = (   0.3749881   0.6250145   0.5000000  )
       107           Al  tau( 107) = (   0.3749901   0.5000015   0.6250103  )
       108           Al  tau( 108) = (   0.2500002   0.6249953   0.6249865  )
       109           Al  tau( 109) = (   0.2499908   0.4999923   0.7500159  )
       110           Al  tau( 110) = (   0.3750006   0.6250013   0.7500034  )
       111           Al  tau( 111) = (   0.3750014   0.5000060   0.8749993  )
       112           Al  tau( 112) = (   0.2499909   0.6250018   0.8750063  )
       113           Al  tau( 113) = (   0.2498498   0.7501972   0.0000000  )
       114           Al  tau( 114) = (   0.3748029   0.8751503   0.0000000  )
       115           Al  tau( 115) = (   0.3749733   0.7500267   0.1249767  )
       116           Al  tau( 116) = (   0.2498848   0.8751153   0.1249929  )
       117           Al  tau( 117) = (   0.2500350   0.7499575   0.2500303  )
       118           Al  tau( 118) = (   0.3750425   0.8749650   0.2500302  )
       119           Al  tau( 119) = (   0.3750059   0.7499941   0.3750081  )
       120           Al  tau( 120) = (   0.2499754   0.8750246   0.3749958  )
       121           Al  tau( 121) = (   0.2499972   0.7499895   0.5000000  )
       122           Al  tau( 122) = (   0.3750104   0.8750028   0.5000000  )
       123           Al  tau( 123) = (   0.3750059   0.7499941   0.6249919  )
       124           Al  tau( 124) = (   0.2499754   0.8750246   0.6250042  )
       125           Al  tau( 125) = (   0.2500350   0.7499575   0.7499698  )
       126           Al  tau( 126) = (   0.3750425   0.8749650   0.7499698  )
       127           Al  tau( 127) = (   0.3749733   0.7500267   0.8750233  )
       128           Al  tau( 128) = (   0.2498848   0.8751153   0.8750071  )
       129           Al  tau( 129) = (   0.4999506   0.0000079   0.0000000  )
       130           Al  tau( 130) = (   0.6250493   0.1249921   0.0000000  )
       131           Al  tau( 131) = (   0.6250445   0.9999929   0.1250017  )
       132           Al  tau( 132) = (   0.4999555   0.1250072   0.1250017  )
       133           Al  tau( 133) = (   0.4999981   0.0000078   0.2499674  )
       134           Al  tau( 134) = (   0.6250019   0.1249923   0.2499675  )
       135           Al  tau( 135) = (   0.6249858   0.9999997   0.3750235  )
       136           Al  tau( 136) = (   0.5000143   0.1250005   0.3750236  )
       137           Al  tau( 137) = (   0.5000138   0.9999982   0.5000000  )
       138           Al  tau( 138) = (   0.6249862   0.1250020   0.5000000  )
       139           Al  tau( 139) = (   0.6249858   0.9999997   0.6249765  )
       140           Al  tau( 140) = (   0.5000143   0.1250005   0.6249764  )
       141           Al  tau( 141) = (   0.4999981   0.0000078   0.7500326  )
       142           Al  tau( 142) = (   0.6250019   0.1249923   0.7500325  )
       143           Al  tau( 143) = (   0.6250445   0.9999929   0.8749983  )
       144           Al  tau( 144) = (   0.4999555   0.1250072   0.8749983  )
       145           Al  tau( 145) = (   0.4999464   0.2499705   0.0000000  )
       146           Al  tau( 146) = (   0.6249904   0.3749976   0.0000000  )
       147           Al  tau( 147) = (   0.6250018   0.2499909   0.1249937  )
       148           Al  tau( 148) = (   0.5000060   0.3750014   0.1250007  )
       149           Al  tau( 149) = (   0.4999923   0.2499908   0.2499841  )
       150           Al  tau( 150) = (   0.6250013   0.3750006   0.2499966  )
       151           Al  tau( 151) = (   0.6249953   0.2500002   0.3750135  )
       152           Al  tau( 152) = (   0.5000015   0.3749901   0.3749898  )
       153           Al  tau( 153) = (   0.5000107   0.2500054   0.5000000  )
       154           Al  tau( 154) = (   0.6250145   0.3749881   0.5000000  )
       155           Al  tau( 155) = (   0.6249953   0.2500002   0.6249865  )
       156           Al  tau( 156) = (   0.5000015   0.3749901   0.6250103  )
       157           Al  tau( 157) = (   0.4999923   0.2499908   0.7500159  )
       158           Al  tau( 158) = (   0.6250013   0.3750006   0.7500034  )
       159           Al  tau( 159) = (   0.6250018   0.2499909   0.8750063  )
       160           Al  tau( 160) = (   0.5000060   0.3750014   0.8749993  )
       161           Al  tau( 161) = (   0.5000036   0.5000036   0.0000000  )
       162           Al  tau( 162) = (   0.6249965   0.6249965   0.0000000  )
       163           Al  tau( 163) = (   0.6249845   0.5000155   0.1249971  )
       164           Al  tau( 164) = (   0.5000155   0.6249845   0.1249971  )
       165           Al  tau( 165) = (   0.5000117   0.5000117   0.2500090  )
       166           Al  tau( 166) = (   0.6249883   0.6249883   0.2500089  )
       167           Al  tau( 167) = (   0.6250162   0.4999836   0.3749748  )
       168           Al  tau( 168) = (   0.4999836   0.6250162   0.3749748  )
       169           Al  tau( 169) = (   0.4999896   0.4999896   0.5000000  )
       170           Al  tau( 170) = (   0.6250102   0.6250102   0.5000000  )
       171           Al  tau( 171) = (   0.6250162   0.4999836   0.6250252  )
       172           Al  tau( 172) = (   0.4999836   0.6250162   0.6250252  )
       173           Al  tau( 173) = (   0.5000117   0.5000117   0.7499910  )
       174           Al  tau( 174) = (   0.6249883   0.6249883   0.7499912  )
       175           Al  tau( 175) = (   0.6249845   0.5000155   0.8750029  )
       176           Al  tau( 176) = (   0.5000155   0.6249845   0.8750029  )
       177           Al  tau( 177) = (   0.5000097   0.7500024   0.0000000  )
       178           Al  tau( 178) = (   0.6250536   0.8750294   0.0000000  )
       179           Al  tau( 179) = (   0.6249940   0.7499986   0.1250006  )
       180           Al  tau( 180) = (   0.4999982   0.8750091   0.1249937  )
       181           Al  tau( 181) = (   0.4999986   0.7499994   0.2499965  )
       182           Al  tau( 182) = (   0.6250077   0.8750093   0.2499840  )
       183           Al  tau( 183) = (   0.6249985   0.7500099   0.3749897  )
       184           Al  tau( 184) = (   0.5000046   0.8749998   0.3750134  )
       185           Al  tau( 185) = (   0.4999854   0.7500118   0.5000000  )
       186           Al  tau( 186) = (   0.6249893   0.8749948   0.5000000  )
       187           Al  tau( 187) = (   0.6249985   0.7500099   0.6250103  )
       188           Al  tau( 188) = (   0.5000046   0.8749998   0.6249866  )
       189           Al  tau( 189) = (   0.4999986   0.7499994   0.7500035  )
       190           Al  tau( 190) = (   0.6250077   0.8750093   0.7500160  )
       191           Al  tau( 191) = (   0.6249940   0.7499986   0.8749994  )
       192           Al  tau( 192) = (   0.4999982   0.8750091   0.8750063  )
       193           Al  tau( 193) = (   0.7503345   0.9999989   0.0000000  )
       194           Al  tau( 194) = (   0.8760754   0.1242186   0.0000000  )
       195           Al  tau( 195) = (   0.8757576   0.0000186   0.1242739  )
       196           Al  tau( 196) = (   0.7501311   0.1249905   0.1249809  )
       197           Al  tau( 197) = (   0.7501380   0.0000163   0.2498565  )
       198           Al  tau( 198) = (   0.8751636   0.1250011   0.2497567  )
       199           Al  tau( 199) = (   0.8750240   0.0000129   0.3749380  )
       200           Al  tau( 200) = (   0.7500095   0.1249894   0.3750029  )
       201           Al  tau( 201) = (   0.7500109   0.0000005   0.5000000  )
       202           Al  tau( 202) = (   0.8750140   0.1250078   0.5000000  )
       203           Al  tau( 203) = (   0.8750240   0.0000129   0.6250620  )
       204           Al  tau( 204) = (   0.7500095   0.1249894   0.6249971  )
       205           Al  tau( 205) = (   0.7501380   0.0000163   0.7501435  )
       206           Al  tau( 206) = (   0.8751636   0.1250011   0.7502433  )
       207           Al  tau( 207) = (   0.8757576   0.0000186   0.8757262  )
       208           Al  tau( 208) = (   0.7501311   0.1249905   0.8750191  )
       209           Al  tau( 209) = (   0.7501972   0.2498498   0.0000000  )
       210           Al  tau( 210) = (   0.8751503   0.3748029   0.0000000  )
       211           Al  tau( 211) = (   0.8751153   0.2498848   0.1249929  )
       212           Al  tau( 212) = (   0.7500267   0.3749733   0.1249767  )
       213           Al  tau( 213) = (   0.7499575   0.2500350   0.2500303  )
       214           Al  tau( 214) = (   0.8749650   0.3750425   0.2500302  )
       215           Al  tau( 215) = (   0.8750246   0.2499754   0.3749958  )
       216           Al  tau( 216) = (   0.7499941   0.3750059   0.3750081  )
       217           Al  tau( 217) = (   0.7499895   0.2499972   0.5000000  )
       218           Al  tau( 218) = (   0.8750028   0.3750104   0.5000000  )
       219           Al  tau( 219) = (   0.8750246   0.2499754   0.6250042  )
       220           Al  tau( 220) = (   0.7499941   0.3750059   0.6249919  )
       221           Al  tau( 221) = (   0.7499575   0.2500350   0.7499698  )
       222           Al  tau( 222) = (   0.8749650   0.3750425   0.7499698  )
       223           Al  tau( 223) = (   0.8751153   0.2498848   0.8750071  )
       224           Al  tau( 224) = (   0.7500267   0.3749733   0.8750233  )
       225           Al  tau( 225) = (   0.7500024   0.5000097   0.0000000  )
       226           Al  tau( 226) = (   0.8750294   0.6250536   0.0000000  )
       227           Al  tau( 227) = (   0.8750091   0.4999982   0.1249937  )
       228           Al  tau( 228) = (   0.7499986   0.6249940   0.1250006  )
       229           Al  tau( 229) = (   0.7499994   0.4999986   0.2499965  )
       230           Al  tau( 230) = (   0.8750093   0.6250077   0.2499840  )
       231           Al  tau( 231) = (   0.8749998   0.5000046   0.3750134  )
       232           Al  tau( 232) = (   0.7500099   0.6249985   0.3749897  )
       233           Al  tau( 233) = (   0.7500118   0.4999854   0.5000000  )
       234           Al  tau( 234) = (   0.8749948   0.6249893   0.5000000  )
       235           Al  tau( 235) = (   0.8749998   0.5000046   0.6249866  )
       236           Al  tau( 236) = (   0.7500099   0.6249985   0.6250103  )
       237           Al  tau( 237) = (   0.7499994   0.4999986   0.7500035  )
       238           Al  tau( 238) = (   0.8750093   0.6250077   0.7500160  )
       239           Al  tau( 239) = (   0.8750091   0.4999982   0.8750063  )
       240           Al  tau( 240) = (   0.7499986   0.6249940   0.8749994  )
       241           Al  tau( 241) = (   0.7500981   0.7500981   0.0000000  )
       242           Al  tau( 242) = (   0.8760424   0.8760424   0.0000000  )
       243           Al  tau( 243) = (   0.8750377   0.7501368   0.1249480  )
       244           Al  tau( 244) = (   0.7501368   0.8750377   0.1249480  )
       245           Al  tau( 245) = (   0.7499641   0.7499641   0.2500303  )
       246           Al  tau( 246) = (   0.8749584   0.8749584   0.2499685  )
       247           Al  tau( 247) = (   0.8750167   0.7500146   0.3749960  )
       248           Al  tau( 248) = (   0.7500146   0.8750167   0.3749960  )
       249           Al  tau( 249) = (   0.7500160   0.7500160   0.5000000  )
       250           Al  tau( 250) = (   0.8749932   0.8749932   0.5000000  )
       251           Al  tau( 251) = (   0.8750167   0.7500146   0.6250040  )
       252           Al  tau( 252) = (   0.7500146   0.8750167   0.6250040  )
       253           Al  tau( 253) = (   0.7499641   0.7499641   0.7499698  )
       254           Al  tau( 254) = (   0.8749584   0.8749584   0.7500315  )
       255           Al  tau( 255) = (   0.8750377   0.7501368   0.8750520  )
       256           Al  tau( 256) = (   0.7501368   0.8750377   0.8750520  )

   Crystallographic axes

     site n.     atom                  positions (cryst. coord.)
         1           Si  tau(   1) = (  0.9995856  0.9995856  0.0000000  )
         2           Al  tau(   2) = (  0.1239927  0.0010074  0.1229423  )
         3           Si  tau(   3) = (  0.1254123  0.1254123  0.0000000  )
         4           Al  tau(   4) = (  0.0010074  0.1239927  0.1229423  )
         5           Al  tau(   5) = (  0.0000199  0.0000199  0.2495267  )
         6           Al  tau(   6) = (  0.1249802  0.1249802  0.2495266  )
         7           Al  tau(   7) = (  0.1249925  0.0000075  0.3748865  )
         8           Al  tau(   8) = (  0.0000075  0.1249925  0.3748865  )
         9           Al  tau(   9) = (  0.9999913  0.9999913  0.5000000  )
        10           Al  tau(  10) = (  0.1250088  0.1250088  0.5000000  )
        11           Al  tau(  11) = (  0.1249925  0.0000075  0.6251135  )
        12           Al  tau(  12) = (  0.0000075  0.1249925  0.6251135  )
        13           Al  tau(  13) = (  0.0000199  0.0000199  0.7504733  )
        14           Al  tau(  14) = (  0.1249802  0.1249802  0.7504734  )
        15           Al  tau(  15) = (  0.1239927  0.0010074  0.8770578  )
        16           Al  tau(  16) = (  0.0010074  0.1239927  0.8770578  )
        17           Al  tau(  17) = (  0.0007816  0.2489246  0.0000000  )
        18           Al  tau(  18) = (  0.1250012  0.3746654  0.0000000  )
        19           Al  tau(  19) = (  0.1249815  0.2492424  0.1242737  )
        20           Al  tau(  20) = (  0.0000096  0.3748689  0.1249808  )
        21           Al  tau(  21) = (  0.9999990  0.2498364  0.2497566  )
        22           Al  tau(  22) = (  0.1249838  0.3748620  0.2498564  )
        23           Al  tau(  23) = (  0.1249872  0.2499760  0.3749379  )
        24           Al  tau(  24) = (  0.0000107  0.3749905  0.3750028  )
        25           Al  tau(  25) = (  0.9999922  0.2499860  0.5000000  )
        26           Al  tau(  26) = (  0.1249997  0.3749892  0.5000000  )
        27           Al  tau(  27) = (  0.1249872  0.2499760  0.6250621  )
        28           Al  tau(  28) = (  0.0000107  0.3749905  0.6249972  )
        29           Al  tau(  29) = (  0.9999990  0.2498364  0.7502434  )
        30           Al  tau(  30) = (  0.1249838  0.3748620  0.7501436  )
        31           Al  tau(  31) = (  0.1249815  0.2492424  0.8757263  )
        32           Al  tau(  32) = (  0.0000096  0.3748689  0.8750192  )
        33           Al  tau(  33) = (  0.0000079  0.4999506  0.0000000  )
        34           Al  tau(  34) = (  0.1249921  0.6250493  0.0000000  )
        35           Al  tau(  35) = (  0.1250072  0.4999555  0.1250017  )
        36           Al  tau(  36) = (  0.9999929  0.6250445  0.1250017  )
        37           Al  tau(  37) = (  0.0000078  0.4999981  0.2499674  )
        38           Al  tau(  38) = (  0.1249923  0.6250019  0.2499675  )
        39           Al  tau(  39) = (  0.1250005  0.5000143  0.3750236  )
        40           Al  tau(  40) = (  0.9999997  0.6249858  0.3750235  )
        41           Al  tau(  41) = (  0.9999982  0.5000138  0.5000000  )
        42           Al  tau(  42) = (  0.1250020  0.6249862  0.5000000  )
        43           Al  tau(  43) = (  0.1250005  0.5000143  0.6249764  )
        44           Al  tau(  44) = (  0.9999997  0.6249858  0.6249765  )
        45           Al  tau(  45) = (  0.0000078  0.4999981  0.7500326  )
        46           Al  tau(  46) = (  0.1249923  0.6250019  0.7500325  )
        47           Al  tau(  47) = (  0.1250072  0.4999555  0.8749983  )
        48           Al  tau(  48) = (  0.9999929  0.6250445  0.8749983  )
        49           Al  tau(  49) = (  0.9999989  0.7503345  0.0000000  )
        50           Al  tau(  50) = (  0.1242186  0.8760754  0.0000000  )
        51           Al  tau(  51) = (  0.1249905  0.7501311  0.1249809  )
        52           Al  tau(  52) = (  0.0000186  0.8757576  0.1242739  )
        53           Al  tau(  53) = (  0.0000163  0.7501380  0.2498565  )
        54           Al  tau(  54) = (  0.1250011  0.8751636  0.2497567  )
        55           Al  tau(  55) = (  0.1249894  0.7500095  0.3750029  )
        56           Al  tau(  56) = (  0.0000129  0.8750240  0.3749380  )
        57           Al  tau(  57) = (  0.0000005  0.7500109  0.5000000  )
        58           Al  tau(  58) = (  0.1250078  0.8750140  0.5000000  )
        59           Al  tau(  59) = (  0.1249894  0.7500095  0.6249971  )
        60           Al  tau(  60) = (  0.0000129  0.8750240  0.6250620  )
        61           Al  tau(  61) = (  0.0000163  0.7501380  0.7501435  )
        62           Al  tau(  62) = (  0.1250011  0.8751636  0.7502433  )
        63           Al  tau(  63) = (  0.1249905  0.7501311  0.8750191  )
        64           Al  tau(  64) = (  0.0000186  0.8757576  0.8757262  )
        65           Al  tau(  65) = (  0.2489246  0.0007816  0.0000000  )
        66           Al  tau(  66) = (  0.3746654  0.1250012  0.0000000  )
        67           Al  tau(  67) = (  0.3748689  0.0000096  0.1249808  )
        68           Al  tau(  68) = (  0.2492424  0.1249815  0.1242737  )
        69           Al  tau(  69) = (  0.2498364  0.9999990  0.2497566  )
        70           Al  tau(  70) = (  0.3748620  0.1249838  0.2498564  )
        71           Al  tau(  71) = (  0.3749905  0.0000107  0.3750028  )
        72           Al  tau(  72) = (  0.2499760  0.1249872  0.3749379  )
        73           Al  tau(  73) = (  0.2499860  0.9999922  0.5000000  )
        74           Al  tau(  74) = (  0.3749892  0.1249997  0.5000000  )
        75           Al  tau(  75) = (  0.3749905  0.0000107  0.6249972  )
        76           Al  tau(  76) = (  0.2499760  0.1249872  0.6250621  )
        77           Al  tau(  77) = (  0.2498364  0.9999990  0.7502434  )
        78           Al  tau(  78) = (  0.3748620  0.1249838  0.7501436  )
        79           Al  tau(  79) = (  0.3748689  0.0000096  0.8750192  )
        80           Al  tau(  80) = (  0.2492424  0.1249815  0.8757263  )
        81           Al  tau(  81) = (  0.2489575  0.2489575  0.0000000  )
        82           Al  tau(  82) = (  0.3749017  0.3749017  0.0000000  )
        83           Al  tau(  83) = (  0.3748631  0.2499624  0.1249480  )
        84           Al  tau(  84) = (  0.2499624  0.3748631  0.1249480  )
        85           Al  tau(  85) = (  0.2500417  0.2500417  0.2499684  )
        86           Al  tau(  86) = (  0.3750359  0.3750359  0.2500304  )
        87           Al  tau(  87) = (  0.3749855  0.2499835  0.3749961  )
        88           Al  tau(  88) = (  0.2499835  0.3749855  0.3749961  )
        89           Al  tau(  89) = (  0.2500070  0.2500070  0.5000000  )
        90           Al  tau(  90) = (  0.3749841  0.3749841  0.5000000  )
        91           Al  tau(  91) = (  0.3749855  0.2499835  0.6250039  )
        92           Al  tau(  92) = (  0.2499835  0.3749855  0.6250039  )
        93           Al  tau(  93) = (  0.2500417  0.2500417  0.7500316  )
        94           Al  tau(  94) = (  0.3750359  0.3750359  0.7499696  )
        95           Al  tau(  95) = (  0.3748631  0.2499624  0.8750520  )
        96           Al  tau(  96) = (  0.2499624  0.3748631  0.8750520  )
        97           Al  tau(  97) = (  0.2499705  0.4999464  0.0000000  )
        98           Al  tau(  98) = (  0.3749976  0.6249904  0.0000000  )
        99           Al  tau(  99) = (  0.3750014  0.5000060  0.1250007  )
       100           Al  tau( 100) = (  0.2499909  0.6250018  0.1249937  )
       101           Al  tau( 101) = (  0.2499908  0.4999923  0.2499841  )
       102           Al  tau( 102) = (  0.3750006  0.6250013  0.2499966  )
       103           Al  tau( 103) = (  0.3749901  0.5000015  0.3749898  )
       104           Al  tau( 104) = (  0.2500002  0.6249953  0.3750135  )
       105           Al  tau( 105) = (  0.2500054  0.5000107  0.5000000  )
       106           Al  tau( 106) = (  0.3749881  0.6250145  0.5000000  )
       107           Al  tau( 107) = (  0.3749901  0.5000015  0.6250103  )
       108           Al  tau( 108) = (  0.2500002  0.6249953  0.6249865  )
       109           Al  tau( 109) = (  0.2499908  0.4999923  0.7500159  )
       110           Al  tau( 110) = (  0.3750006  0.6250013  0.7500034  )
       111           Al  tau( 111) = (  0.3750014  0.5000060  0.8749993  )
       112           Al  tau( 112) = (  0.2499909  0.6250018  0.8750063  )
       113           Al  tau( 113) = (  0.2498498  0.7501972  0.0000000  )
       114           Al  tau( 114) = (  0.3748029  0.8751503  0.0000000  )
       115           Al  tau( 115) = (  0.3749733  0.7500267  0.1249767  )
       116           Al  tau( 116) = (  0.2498848  0.8751153  0.1249929  )
       117           Al  tau( 117) = (  0.2500350  0.7499575  0.2500303  )
       118           Al  tau( 118) = (  0.3750425  0.8749650  0.2500302  )
       119           Al  tau( 119) = (  0.3750059  0.7499941  0.3750081  )
       120           Al  tau( 120) = (  0.2499754  0.8750246  0.3749958  )
       121           Al  tau( 121) = (  0.2499972  0.7499895  0.5000000  )
       122           Al  tau( 122) = (  0.3750104  0.8750028  0.5000000  )
       123           Al  tau( 123) = (  0.3750059  0.7499941  0.6249919  )
       124           Al  tau( 124) = (  0.2499754  0.8750246  0.6250042  )
       125           Al  tau( 125) = (  0.2500350  0.7499575  0.7499698  )
       126           Al  tau( 126) = (  0.3750425  0.8749650  0.7499698  )
       127           Al  tau( 127) = (  0.3749733  0.7500267  0.8750233  )
       128           Al  tau( 128) = (  0.2498848  0.8751153  0.8750071  )
       129           Al  tau( 129) = (  0.4999506  0.0000079  0.0000000  )
       130           Al  tau( 130) = (  0.6250493  0.1249921  0.0000000  )
       131           Al  tau( 131) = (  0.6250445  0.9999929  0.1250017  )
       132           Al  tau( 132) = (  0.4999555  0.1250072  0.1250017  )
       133           Al  tau( 133) = (  0.4999981  0.0000078  0.2499674  )
       134           Al  tau( 134) = (  0.6250019  0.1249923  0.2499675  )
       135           Al  tau( 135) = (  0.6249858  0.9999997  0.3750235  )
       136           Al  tau( 136) = (  0.5000143  0.1250005  0.3750236  )
       137           Al  tau( 137) = (  0.5000138  0.9999982  0.5000000  )
       138           Al  tau( 138) = (  0.6249862  0.1250020  0.5000000  )
       139           Al  tau( 139) = (  0.6249858  0.9999997  0.6249765  )
       140           Al  tau( 140) = (  0.5000143  0.1250005  0.6249764  )
       141           Al  tau( 141) = (  0.4999981  0.0000078  0.7500326  )
       142           Al  tau( 142) = (  0.6250019  0.1249923  0.7500325  )
       143           Al  tau( 143) = (  0.6250445  0.9999929  0.8749983  )
       144           Al  tau( 144) = (  0.4999555  0.1250072  0.8749983  )
       145           Al  tau( 145) = (  0.4999464  0.2499705  0.0000000  )
       146           Al  tau( 146) = (  0.6249904  0.3749976  0.0000000  )
       147           Al  tau( 147) = (  0.6250018  0.2499909  0.1249937  )
       148           Al  tau( 148) = (  0.5000060  0.3750014  0.1250007  )
       149           Al  tau( 149) = (  0.4999923  0.2499908  0.2499841  )
       150           Al  tau( 150) = (  0.6250013  0.3750006  0.2499966  )
       151           Al  tau( 151) = (  0.6249953  0.2500002  0.3750135  )
       152           Al  tau( 152) = (  0.5000015  0.3749901  0.3749898  )
       153           Al  tau( 153) = (  0.5000107  0.2500054  0.5000000  )
       154           Al  tau( 154) = (  0.6250145  0.3749881  0.5000000  )
       155           Al  tau( 155) = (  0.6249953  0.2500002  0.6249865  )
       156           Al  tau( 156) = (  0.5000015  0.3749901  0.6250103  )
       157           Al  tau( 157) = (  0.4999923  0.2499908  0.7500159  )
       158           Al  tau( 158) = (  0.6250013  0.3750006  0.7500034  )
       159           Al  tau( 159) = (  0.6250018  0.2499909  0.8750063  )
       160           Al  tau( 160) = (  0.5000060  0.3750014  0.8749993  )
       161           Al  tau( 161) = (  0.5000036  0.5000036  0.0000000  )
       162           Al  tau( 162) = (  0.6249965  0.6249965  0.0000000  )
       163           Al  tau( 163) = (  0.6249845  0.5000155  0.1249971  )
       164           Al  tau( 164) = (  0.5000155  0.6249845  0.1249971  )
       165           Al  tau( 165) = (  0.5000117  0.5000117  0.2500090  )
       166           Al  tau( 166) = (  0.6249883  0.6249883  0.2500089  )
       167           Al  tau( 167) = (  0.6250162  0.4999836  0.3749748  )
       168           Al  tau( 168) = (  0.4999836  0.6250162  0.3749748  )
       169           Al  tau( 169) = (  0.4999896  0.4999896  0.5000000  )
       170           Al  tau( 170) = (  0.6250102  0.6250102  0.5000000  )
       171           Al  tau( 171) = (  0.6250162  0.4999836  0.6250252  )
       172           Al  tau( 172) = (  0.4999836  0.6250162  0.6250252  )
       173           Al  tau( 173) = (  0.5000117  0.5000117  0.7499910  )
       174           Al  tau( 174) = (  0.6249883  0.6249883  0.7499912  )
       175           Al  tau( 175) = (  0.6249845  0.5000155  0.8750029  )
       176           Al  tau( 176) = (  0.5000155  0.6249845  0.8750029  )
       177           Al  tau( 177) = (  0.5000097  0.7500024  0.0000000  )
       178           Al  tau( 178) = (  0.6250536  0.8750294  0.0000000  )
       179           Al  tau( 179) = (  0.6249940  0.7499986  0.1250006  )
       180           Al  tau( 180) = (  0.4999982  0.8750091  0.1249937  )
       181           Al  tau( 181) = (  0.4999986  0.7499994  0.2499965  )
       182           Al  tau( 182) = (  0.6250077  0.8750093  0.2499840  )
       183           Al  tau( 183) = (  0.6249985  0.7500099  0.3749897  )
       184           Al  tau( 184) = (  0.5000046  0.8749998  0.3750134  )
       185           Al  tau( 185) = (  0.4999854  0.7500118  0.5000000  )
       186           Al  tau( 186) = (  0.6249893  0.8749948  0.5000000  )
       187           Al  tau( 187) = (  0.6249985  0.7500099  0.6250103  )
       188           Al  tau( 188) = (  0.5000046  0.8749998  0.6249866  )
       189           Al  tau( 189) = (  0.4999986  0.7499994  0.7500035  )
       190           Al  tau( 190) = (  0.6250077  0.8750093  0.7500160  )
       191           Al  tau( 191) = (  0.6249940  0.7499986  0.8749994  )
       192           Al  tau( 192) = (  0.4999982  0.8750091  0.8750063  )
       193           Al  tau( 193) = (  0.7503345  0.9999989  0.0000000  )
       194           Al  tau( 194) = (  0.8760754  0.1242186  0.0000000  )
       195           Al  tau( 195) = (  0.8757576  0.0000186  0.1242739  )
       196           Al  tau( 196) = (  0.7501311  0.1249905  0.1249809  )
       197           Al  tau( 197) = (  0.7501380  0.0000163  0.2498565  )
       198           Al  tau( 198) = (  0.8751636  0.1250011  0.2497567  )
       199           Al  tau( 199) = (  0.8750240  0.0000129  0.3749380  )
       200           Al  tau( 200) = (  0.7500095  0.1249894  0.3750029  )
       201           Al  tau( 201) = (  0.7500109  0.0000005  0.5000000  )
       202           Al  tau( 202) = (  0.8750140  0.1250078  0.5000000  )
       203           Al  tau( 203) = (  0.8750240  0.0000129  0.6250620  )
       204           Al  tau( 204) = (  0.7500095  0.1249894  0.6249971  )
       205           Al  tau( 205) = (  0.7501380  0.0000163  0.7501435  )
       206           Al  tau( 206) = (  0.8751636  0.1250011  0.7502433  )
       207           Al  tau( 207) = (  0.8757576  0.0000186  0.8757262  )
       208           Al  tau( 208) = (  0.7501311  0.1249905  0.8750191  )
       209           Al  tau( 209) = (  0.7501972  0.2498498  0.0000000  )
       210           Al  tau( 210) = (  0.8751503  0.3748029  0.0000000  )
       211           Al  tau( 211) = (  0.8751153  0.2498848  0.1249929  )
       212           Al  tau( 212) = (  0.7500267  0.3749733  0.1249767  )
       213           Al  tau( 213) = (  0.7499575  0.2500350  0.2500303  )
       214           Al  tau( 214) = (  0.8749650  0.3750425  0.2500302  )
       215           Al  tau( 215) = (  0.8750246  0.2499754  0.3749958  )
       216           Al  tau( 216) = (  0.7499941  0.3750059  0.3750081  )
       217           Al  tau( 217) = (  0.7499895  0.2499972  0.5000000  )
       218           Al  tau( 218) = (  0.8750028  0.3750104  0.5000000  )
       219           Al  tau( 219) = (  0.8750246  0.2499754  0.6250042  )
       220           Al  tau( 220) = (  0.7499941  0.3750059  0.6249919  )
       221           Al  tau( 221) = (  0.7499575  0.2500350  0.7499698  )
       222           Al  tau( 222) = (  0.8749650  0.3750425  0.7499698  )
       223           Al  tau( 223) = (  0.8751153  0.2498848  0.8750071  )
       224           Al  tau( 224) = (  0.7500267  0.3749733  0.8750233  )
       225           Al  tau( 225) = (  0.7500024  0.5000097  0.0000000  )
       226           Al  tau( 226) = (  0.8750294  0.6250536  0.0000000  )
       227           Al  tau( 227) = (  0.8750091  0.4999982  0.1249937  )
       228           Al  tau( 228) = (  0.7499986  0.6249940  0.1250006  )
       229           Al  tau( 229) = (  0.7499994  0.4999986  0.2499965  )
       230           Al  tau( 230) = (  0.8750093  0.6250077  0.2499840  )
       231           Al  tau( 231) = (  0.8749998  0.5000046  0.3750134  )
       232           Al  tau( 232) = (  0.7500099  0.6249985  0.3749897  )
       233           Al  tau( 233) = (  0.7500118  0.4999854  0.5000000  )
       234           Al  tau( 234) = (  0.8749948  0.6249893  0.5000000  )
       235           Al  tau( 235) = (  0.8749998  0.5000046  0.6249866  )
       236           Al  tau( 236) = (  0.7500099  0.6249985  0.6250103  )
       237           Al  tau( 237) = (  0.7499994  0.4999986  0.7500035  )
       238           Al  tau( 238) = (  0.8750093  0.6250077  0.7500160  )
       239           Al  tau( 239) = (  0.8750091  0.4999982  0.8750063  )
       240           Al  tau( 240) = (  0.7499986  0.6249940  0.8749994  )
       241           Al  tau( 241) = (  0.7500981  0.7500981  0.0000000  )
       242           Al  tau( 242) = (  0.8760424  0.8760424  0.0000000  )
       243           Al  tau( 243) = (  0.8750377  0.7501368  0.1249480  )
       244           Al  tau( 244) = (  0.7501368  0.8750377  0.1249480  )
       245           Al  tau( 245) = (  0.7499641  0.7499641  0.2500303  )
       246           Al  tau( 246) = (  0.8749584  0.8749584  0.2499685  )
       247           Al  tau( 247) = (  0.8750167  0.7500146  0.3749960  )
       248           Al  tau( 248) = (  0.7500146  0.8750167  0.3749960  )
       249           Al  tau( 249) = (  0.7500160  0.7500160  0.5000000  )
       250           Al  tau( 250) = (  0.8749932  0.8749932  0.5000000  )
       251           Al  tau( 251) = (  0.8750167  0.7500146  0.6250040  )
       252           Al  tau( 252) = (  0.7500146  0.8750167  0.6250040  )
       253           Al  tau( 253) = (  0.7499641  0.7499641  0.7499698  )
       254           Al  tau( 254) = (  0.8749584  0.8749584  0.7500315  )
       255           Al  tau( 255) = (  0.8750377  0.7501368  0.8750520  )
       256           Al  tau( 256) = (  0.7501368  0.8750377  0.8750520  )

     number of k points=    63  Methfessel-Paxton smearing, width (Ry)=  0.0441
                       cart. coord. in units 2pi/alat
        k(    1) = (   0.0000000   0.0000000   0.0000000), wk =   0.0160000
        k(    2) = (   0.0000000   0.0000000   0.2000000), wk =   0.0320000
        k(    3) = (   0.0000000   0.0000000   0.4000000), wk =   0.0320000
        k(    4) = (   0.0000000   0.2000000   0.0000000), wk =   0.0320000
        k(    5) = (   0.0000000   0.2000000   0.2000000), wk =   0.0320000
        k(    6) = (   0.0000000   0.2000000   0.4000000), wk =   0.0320000
        k(    7) = (   0.0000000   0.2000000  -0.4000000), wk =   0.0320000
        k(    8) = (   0.0000000   0.2000000  -0.2000000), wk =   0.0320000
        k(    9) = (   0.0000000   0.4000000   0.0000000), wk =   0.0320000
        k(   10) = (   0.0000000   0.4000000   0.2000000), wk =   0.0320000
        k(   11) = (   0.0000000   0.4000000   0.4000000), wk =   0.0320000
        k(   12) = (   0.0000000   0.4000000  -0.4000000), wk =   0.0320000
        k(   13) = (   0.0000000   0.4000000  -0.2000000), wk =   0.0320000
        k(   14) = (   0.2000000   0.0000000   0.0000000), wk =   0.0320000
        k(   15) = (   0.2000000   0.0000000   0.2000000), wk =   0.0320000
        k(   16) = (   0.2000000   0.0000000   0.4000000), wk =   0.0320000
        k(   17) = (   0.2000000   0.0000000  -0.4000000), wk =   0.0320000
        k(   18) = (   0.2000000   0.0000000  -0.2000000), wk =   0.0320000
        k(   19) = (   0.2000000   0.2000000   0.0000000), wk =   0.0320000
        k(   20) = (   0.2000000   0.2000000   0.2000000), wk =   0.0320000
        k(   21) = (   0.2000000   0.2000000   0.4000000), wk =   0.0320000
        k(   22) = (   0.2000000   0.2000000  -0.4000000), wk =   0.0320000
        k(   23) = (   0.2000000   0.2000000  -0.2000000), wk =   0.0320000
        k(   24) = (   0.2000000   0.4000000   0.0000000), wk =   0.0320000
        k(   25) = (   0.2000000   0.4000000   0.2000000), wk =   0.0320000
        k(   26) = (   0.2000000   0.4000000   0.4000000), wk =   0.0320000
        k(   27) = (   0.2000000   0.4000000  -0.4000000), wk =   0.0320000
        k(   28) = (   0.2000000   0.4000000  -0.2000000), wk =   0.0320000
        k(   29) = (   0.2000000  -0.4000000   0.0000000), wk =   0.0320000
        k(   30) = (   0.2000000  -0.4000000   0.2000000), wk =   0.0320000
        k(   31) = (   0.2000000  -0.4000000   0.4000000), wk =   0.0320000
        k(   32) = (   0.2000000  -0.4000000  -0.4000000), wk =   0.0320000
        k(   33) = (   0.2000000  -0.4000000  -0.2000000), wk =   0.0320000
        k(   34) = (   0.2000000  -0.2000000   0.0000000), wk =   0.0320000
        k(   35) = (   0.2000000  -0.2000000   0.2000000), wk =   0.0320000
        k(   36) = (   0.2000000  -0.2000000   0.4000000), wk =   0.0320000
        k(   37) = (   0.2000000  -0.2000000  -0.4000000), wk =   0.0320000
        k(   38) = (   0.2000000  -0.2000000  -0.2000000), wk =   0.0320000
        k(   39) = (   0.4000000   0.0000000   0.0000000), wk =   0.0320000
        k(   40) = (   0.4000000   0.0000000   0.2000000), wk =   0.0320000
        k(   41) = (   0.4000000   0.0000000   0.4000000), wk =   0.0320000
        k(   42) = (   0.4000000   0.0000000  -0.4000000), wk =   0.0320000
        k(   43) = (   0.4000000   0.0000000  -0.2000000), wk =   0.0320000
        k(   44) = (   0.4000000   0.2000000   0.0000000), wk =   0.0320000
        k(   45) = (   0.4000000   0.2000000   0.2000000), wk =   0.0320000
        k(   46) = (   0.4000000   0.2000000   0.4000000), wk =   0.0320000
        k(   47) = (   0.4000000   0.2000000  -0.4000000), wk =   0.0320000
        k(   48) = (   0.4000000   0.2000000  -0.2000000), wk =   0.0320000
        k(   49) = (   0.4000000   0.4000000   0.0000000), wk =   0.0320000
        k(   50) = (   0.4000000   0.4000000   0.2000000), wk =   0.0320000
        k(   51) = (   0.4000000   0.4000000   0.4000000), wk =   0.0320000
        k(   52) = (   0.4000000   0.4000000  -0.4000000), wk =   0.0320000
        k(   53) = (   0.4000000   0.4000000  -0.2000000), wk =   0.0320000
        k(   54) = (   0.4000000  -0.4000000   0.0000000), wk =   0.0320000
        k(   55) = (   0.4000000  -0.4000000   0.2000000), wk =   0.0320000
        k(   56) = (   0.4000000  -0.4000000   0.4000000), wk =   0.0320000
        k(   57) = (   0.4000000  -0.4000000  -0.4000000), wk =   0.0320000
        k(   58) = (   0.4000000  -0.4000000  -0.2000000), wk =   0.0320000
        k(   59) = (   0.4000000  -0.2000000   0.0000000), wk =   0.0320000
        k(   60) = (   0.4000000  -0.2000000   0.2000000), wk =   0.0320000
        k(   61) = (   0.4000000  -0.2000000   0.4000000), wk =   0.0320000
        k(   62) = (   0.4000000  -0.2000000  -0.4000000), wk =   0.0320000
        k(   63) = (   0.4000000  -0.2000000  -0.2000000), wk =   0.0320000

                       cryst. coord.
        k(    1) = (   0.0000000   0.0000000   0.0000000), wk =   0.0160000
        k(    2) = (   0.0000000   0.0000000   0.2000000), wk =   0.0320000
        k(    3) = (   0.0000000   0.0000000   0.4000000), wk =   0.0320000
        k(    4) = (   0.0000000   0.2000000   0.0000000), wk =   0.0320000
        k(    5) = (   0.0000000   0.2000000   0.2000000), wk =   0.0320000
        k(    6) = (   0.0000000   0.2000000   0.4000000), wk =   0.0320000
        k(    7) = (   0.0000000   0.2000000  -0.4000000), wk =   0.0320000
        k(    8) = (   0.0000000   0.2000000  -0.2000000), wk =   0.0320000
        k(    9) = (   0.0000000   0.4000000   0.0000000), wk =   0.0320000
        k(   10) = (   0.0000000   0.4000000   0.2000000), wk =   0.0320000
        k(   11) = (   0.0000000   0.4000000   0.4000000), wk =   0.0320000
        k(   12) = (   0.0000000   0.4000000  -0.4000000), wk =   0.0320000
        k(   13) = (   0.0000000   0.4000000  -0.2000000), wk =   0.0320000
        k(   14) = (   0.2000000   0.0000000   0.0000000), wk =   0.0320000
        k(   15) = (   0.2000000   0.0000000   0.2000000), wk =   0.0320000
        k(   16) = (   0.2000000   0.0000000   0.4000000), wk =   0.0320000
        k(   17) = (   0.2000000   0.0000000  -0.4000000), wk =   0.0320000
        k(   18) = (   0.2000000   0.0000000  -0.2000000), wk =   0.0320000
        k(   19) = (   0.2000000   0.2000000   0.0000000), wk =   0.0320000
        k(   20) = (   0.2000000   0.2000000   0.2000000), wk =   0.0320000
        k(   21) = (   0.2000000   0.2000000   0.4000000), wk =   0.0320000
        k(   22) = (   0.2000000   0.2000000  -0.4000000), wk =   0.0320000
        k(   23) = (   0.2000000   0.2000000  -0.2000000), wk =   0.0320000
        k(   24) = (   0.2000000   0.4000000   0.0000000), wk =   0.0320000
        k(   25) = (   0.2000000   0.4000000   0.2000000), wk =   0.0320000
        k(   26) = (   0.2000000   0.4000000   0.4000000), wk =   0.0320000
        k(   27) = (   0.2000000   0.4000000  -0.4000000), wk =   0.0320000
        k(   28) = (   0.2000000   0.4000000  -0.2000000), wk =   0.0320000
        k(   29) = (   0.2000000  -0.4000000   0.0000000), wk =   0.0320000
        k(   30) = (   0.2000000  -0.4000000   0.2000000), wk =   0.0320000
        k(   31) = (   0.2000000  -0.4000000   0.4000000), wk =   0.0320000
        k(   32) = (   0.2000000  -0.4000000  -0.4000000), wk =   0.0320000
        k(   33) = (   0.2000000  -0.4000000  -0.2000000), wk =   0.0320000
        k(   34) = (   0.2000000  -0.2000000   0.0000000), wk =   0.0320000
        k(   35) = (   0.2000000  -0.2000000   0.2000000), wk =   0.0320000
        k(   36) = (   0.2000000  -0.2000000   0.4000000), wk =   0.0320000
        k(   37) = (   0.2000000  -0.2000000  -0.4000000), wk =   0.0320000
        k(   38) = (   0.2000000  -0.2000000  -0.2000000), wk =   0.0320000
        k(   39) = (   0.4000000   0.0000000   0.0000000), wk =   0.0320000
        k(   40) = (   0.4000000   0.0000000   0.2000000), wk =   0.0320000
        k(   41) = (   0.4000000   0.0000000   0.4000000), wk =   0.0320000
        k(   42) = (   0.4000000   0.0000000  -0.4000000), wk =   0.0320000
        k(   43) = (   0.4000000   0.0000000  -0.2000000), wk =   0.0320000
        k(   44) = (   0.4000000   0.2000000   0.0000000), wk =   0.0320000
        k(   45) = (   0.4000000   0.2000000   0.2000000), wk =   0.0320000
        k(   46) = (   0.4000000   0.2000000   0.4000000), wk =   0.0320000
        k(   47) = (   0.4000000   0.2000000  -0.4000000), wk =   0.0320000
        k(   48) = (   0.4000000   0.2000000  -0.2000000), wk =   0.0320000
        k(   49) = (   0.4000000   0.4000000   0.0000000), wk =   0.0320000
        k(   50) = (   0.4000000   0.4000000   0.2000000), wk =   0.0320000
        k(   51) = (   0.4000000   0.4000000   0.4000000), wk =   0.0320000
        k(   52) = (   0.4000000   0.4000000  -0.4000000), wk =   0.0320000
        k(   53) = (   0.4000000   0.4000000  -0.2000000), wk =   0.0320000
        k(   54) = (   0.4000000  -0.4000000   0.0000000), wk =   0.0320000
        k(   55) = (   0.4000000  -0.4000000   0.2000000), wk =   0.0320000
        k(   56) = (   0.4000000  -0.4000000   0.4000000), wk =   0.0320000
        k(   57) = (   0.4000000  -0.4000000  -0.4000000), wk =   0.0320000
        k(   58) = (   0.4000000  -0.4000000  -0.2000000), wk =   0.0320000
        k(   59) = (   0.4000000  -0.2000000   0.0000000), wk =   0.0320000
        k(   60) = (   0.4000000  -0.2000000   0.2000000), wk =   0.0320000
        k(   61) = (   0.4000000  -0.2000000   0.4000000), wk =   0.0320000
        k(   62) = (   0.4000000  -0.2000000  -0.4000000), wk =   0.0320000
        k(   63) = (   0.4000000  -0.2000000  -0.2000000), wk =   0.0320000

     Dense  grid:  3895379 G-vectors     FFT dimensions: ( 200, 200, 200)

     Smooth grid:   985619 G-vectors     FFT dimensions: ( 125, 125, 125)

     Dynamical RAM for                 wfc:      96.50 MB

     Dynamical RAM for     wfc (w. buffer):    1640.52 MB

     Dynamical RAM for           str. fact:      13.21 MB

     Dynamical RAM for           local pot:       0.00 MB

     Dynamical RAM for          nlocal pot:     962.51 MB

     Dynamical RAM for                qrad:      15.65 MB

     Dynamical RAM for          rho,v,vnew:      40.87 MB

     Dynamical RAM for               rhoin:      13.62 MB

     Dynamical RAM for            rho*nmix:     105.67 MB

     Dynamical RAM for           G-vectors:      25.60 MB

     Dynamical RAM for          h,s,v(r/c):      39.08 MB

     Dynamical RAM for          <psi|beta>:      32.48 MB

     Dynamical RAM for                 psi:     386.01 MB

     Dynamical RAM for                hpsi:     386.01 MB

     Dynamical RAM for                spsi:     386.01 MB

     Dynamical RAM for      wfcinit/wfcrot:     451.79 MB

     Dynamical RAM for           addusdens:     731.43 MB

     Dynamical RAM for          addusforce:    1576.13 MB

     Dynamical RAM for         addusstress:     334.34 MB

     Estimated static dynamical RAM per process >       2.81 GB

     Estimated max dynamical RAM per process >       4.34 GB

     Estimated total dynamical RAM >     156.40 GB

     Initial potential from superposition of free atoms

     starting charge  769.41717, renormalised to  770.00000
     Starting wfcs are 1024 randomized atomic wfcs
