################################################################################
# Symmetry function scaling data.
################################################################################
# Col  Name     Description
################################################################################
# 1    e_index  Element index.
# 2    sf_index Symmetry function index.
# 3    sf_min   Symmetry function minimum.
# 4    sf_max   Symmetry function maximum.
# 5    sf_mean  Symmetry function mean.
# 6    sf_sigma Symmetry function sigma.
#########################################################################################################################
#        1          2                        3                        4                        5                        6
#  e_index   sf_index                   sf_min                   sf_max                  sf_mean                 sf_sigma
#########################################################################################################################
         1          1   0.0000000000000000E+00   5.4414663632939020E-01   2.1869373682101298E-01   4.5193889931336273E-02
         1          2   0.0000000000000000E+00   2.6209722337312669E-01   4.0110163680394322E-02   9.0608028508014672E-03
         1          3   0.0000000000000000E+00   3.8763105535747278E-01   2.8481223422529917E-01   5.9499095091703862E-02
         1          4   0.0000000000000000E+00   3.9588723455232350E-01   2.3050670704282381E-02   6.1038336334718300E-02
         1          5   0.0000000000000000E+00   2.3271123124088930E-01   1.9674021601310607E-01   4.1301083186230610E-02
         1          6   0.0000000000000000E+00   2.2492944523532679E-01   1.2850192710118179E-02   3.3395150385969449E-02
         1          7   0.0000000000000000E+00   2.1967093197738148E+00   1.4334826292399627E+00   2.4435347859729145E-01
         1          8   0.0000000000000000E+00   2.2746590889279972E+00   1.2031735911640172E-01   3.1644158807249656E-01
         1          9   0.0000000000000000E+00   5.6379893840025259E+00   3.8523287810953919E+00   6.1632898343972942E-01
         1         10   0.0000000000000000E+00   1.2948295472136868E+00   9.0265199122951889E-01   1.3895193419444704E-01
         1         11   0.0000000000000000E+00   1.3417828985776314E+00   6.7176828185251045E-02   1.7412143312200459E-01
         1         12   0.0000000000000000E+00   2.4788026748550154E+00   1.7966572294880438E+00   2.9616268133114937E-01
         1         13   0.0000000000000000E+00   2.5727598244927128E+00   1.3302777826142290E-01   3.4279987004563367E-01
         1         14   0.0000000000000000E+00   3.2755674224044569E+00   2.2347925189947673E+00   3.0791357379564627E-01
         1         15   0.0000000000000000E+00   3.4206431818762484E+00   1.6075058575136159E-01   4.2118334298784327E-01
         1         16   0.0000000000000000E+00   1.1231895622640767E+01   7.8625795897750548E+00   1.2254624969570393E+00
         1         17   0.0000000000000000E+00   1.1848257510797865E+01   6.0237297445566518E-01   1.5570705222749037E+00
         1         18   0.0000000000000000E+00   7.7871468337985332E+00   5.3904808622941580E+00   8.5046033568667978E-01
         1         19   0.0000000000000000E+00   8.1732623251287997E+00   4.1815624788417149E-01   1.0828498732056404E+00
         1         20   0.0000000000000000E+00   4.2911649827419183E+00   3.0377621944621747E+00   4.5779350659310009E-01
         1         21   0.0000000000000000E+00   4.5155845972565993E+00   2.2493364835339291E-01   5.7933391544986557E-01
         1         22   0.0000000000000000E+00   8.9233773750837919E+00   6.3101124383106368E+00   9.6423578688852818E-01
         1         23   0.0000000000000000E+00   9.3835961030036685E+00   4.7029802629129230E-01   1.2136821696917521E+00
         1         24   0.0000000000000000E+00   6.8423461165920818E+00   4.7942831825652474E+00   7.3256517059307313E-01
         1         25   0.0000000000000000E+00   7.1259779266007870E+00   3.5667277048371449E-01   9.2085931705502844E-01
         1         26   0.0000000000000000E+00   4.2653141165815572E-01   1.9286549424548403E-02   5.2621417163720881E-02
         1         27   0.0000000000000000E+00   6.4963851074544250E+00   4.5341891371959795E+00   6.7612431200116119E-01
         1         28   0.0000000000000000E+00   6.7570903216900531E+00   3.3524421039289176E-01   8.6879585201851162E-01
         1         29   0.0000000000000000E+00   6.7639649559011046E+00   4.7272709417291194E+00   7.3052885298593162E-01
         1         30   0.0000000000000000E+00   7.0681462536137163E+00   3.5485507035117009E-01   9.1691527078651891E-01
         1         31   0.0000000000000000E+00   1.3891663834509751E+00   6.0753302018050659E-01   1.5846801170844632E-01
         1         32   0.0000000000000000E+00   6.7442393820351410E-01   6.4820322066257055E-02   1.4698531980121862E-01
         2          1   0.0000000000000000E+00   6.6160796868162464E-01   3.1610659168791311E-01   1.5484939632826838E-01
         2          2   0.0000000000000000E+00   3.4139866123629475E-01   7.5965000688418632E-02   9.9470491802089722E-02
         2          3   0.0000000000000000E+00   4.0822134427874479E-01   2.8074692763330705E-01   1.2929912226061963E-01
         2          4   0.0000000000000000E+00   2.2514365508185008E-01   4.2348654865348036E-02   5.7114666070471380E-02
         2          5   0.0000000000000000E+00   2.2794646166238450E-01   1.5063170202583198E-01   6.5316437435230731E-02
         2          6   0.0000000000000000E+00   1.6629494816867836E+00   3.9651376679499861E-01   5.0540636403341610E-01
         2          7   0.0000000000000000E+00   2.7049833313388025E+00   1.6505309801481587E+00   7.1979089365300686E-01
         2          8   0.0000000000000000E+00   4.2312880352641216E+00   9.9836111229267566E-01   1.2650310960254885E+00
         2          9   0.0000000000000000E+00   6.8995600696388610E+00   4.3173086853900333E+00   1.7916571431489920E+00
         2         10   0.0000000000000000E+00   2.6712184077222784E-01   3.8853260343840595E-02   5.1206434185921419E-02
         2         11   0.0000000000000000E+00   9.8891928935253426E-01   2.2138565358059242E-01   2.8078683524922354E-01
         2         12   0.0000000000000000E+00   1.5711379323816657E+00   9.9068552004580079E-01   3.9888537375003830E-01
         2         13   0.0000000000000000E+00   1.9570656447773997E+00   4.3840178868766877E-01   5.6098542177955579E-01
         2         14   0.0000000000000000E+00   2.9489276619747216E+00   1.9069185818901522E+00   7.6238551176242197E-01
         2         15   0.0000000000000000E+00   2.5158412669742392E+00   5.2976412330584488E-01   6.7725404966210134E-01
         2         16   0.0000000000000000E+00   4.0856621409243061E+00   2.5488318040880240E+00   9.9700970730644578E-01
         2         17   0.0000000000000000E+00   8.4920409304090558E+00   1.9851597381376167E+00   2.5148236834811750E+00
         2         18   0.0000000000000000E+00   1.3834538491298638E+01   8.7391271469045702E+00   3.5535887566265156E+00
         2         19   0.0000000000000000E+00   4.7878727909640046E+00   1.1294589414199676E+00   1.4309807634844225E+00
         2         20   0.0000000000000000E+00   7.8185907234068273E+00   4.9017432223881743E+00   2.0259540064357942E+00
         2         21   0.0000000000000000E+00   3.2475146816171341E+00   7.4128362559271954E-01   9.4275795675751439E-01
         2         22   0.0000000000000000E+00   5.2422210258470168E+00   3.3483489170310521E+00   1.3275726195796049E+00
         2         23   0.0000000000000000E+00   6.7732362263129451E+00   1.5498980636751354E+00   1.9658233623408305E+00
         2         24   0.0000000000000000E+00   1.0896573081605027E+01   6.9565016466891167E+00   2.7664424871955320E+00
         2         25   0.0000000000000000E+00   5.1904771740971034E+00   1.1754385632823086E+00   1.4924283153091722E+00
         2         26   0.0000000000000000E+00   8.2765593667381534E+00   5.2767177153797302E+00   2.1046866823416743E+00
         2         27   0.0000000000000000E+00   5.0102681802582545E+00   1.1048193347603166E+00   1.4031591061134243E+00
         2         28   0.0000000000000000E+00   7.8782004312363343E+00   5.0143400789143495E+00   1.9953740644636719E+00
         2         29   0.0000000000000000E+00   5.2117968779159476E+00   1.1694482129975992E+00   1.4867868544830534E+00
         2         30   0.0000000000000000E+00   8.1702049106049852E+00   5.2476316135184513E+00   2.0754266660945708E+00
         2         31   0.0000000000000000E+00   1.7931316424386928E-01   5.2573533642517017E-02   2.6928651461479082E-02
         2         32   0.0000000000000000E+00   6.7442393820351221E-01   1.9396031488623619E-01   2.2666654321526081E-01
