begin
comment 4 atoms, species Al4
lattice      7.6374128584    -0.3818706429    -0.0000000000
lattice     -0.3818706429     7.6374128584    -0.0000000000
lattice     -0.0000000000    -0.0000000000     7.6565542440
atom      0.0000000000     0.0000000000     0.0000000000   Al  0.0 0.0    4.94836058e-14  5.36129012e-14 -1.14847638e-14
atom     -0.1909353215     3.8187064292     3.8282771220   Al  0.0 0.0    1.77569727e-15 -3.60990026e-14  1.15367014e-14
atom      3.8187064292    -0.1909353215     3.8282771220   Al  0.0 0.0   -1.85786754e-15  3.61255392e-14  1.14495302e-14
atom      3.6277711077     3.6277711077    -0.0000000000   Al  0.0 0.0   -4.93766578e-14 -5.37059341e-14 -1.13321770e-14
energy -7.900233925379338e+01
charge 0.0000
end
begin
comment 4 atoms, species Al4
lattice      7.6374128584    -0.2970105000    -0.0000000000
lattice     -0.2970105000     7.6374128584    -0.0000000000
lattice     -0.0000000000    -0.0000000000     7.6489807614
atom      0.0000000000     0.0000000000     0.0000000000   Al  0.0 0.0   -7.80872122e-14 -9.02570427e-14 -1.28524585e-14
atom     -0.1485052500     3.8187064292     3.8244903807   Al  0.0 0.0   -4.18166509e-14  5.80651175e-14  1.31837298e-14
atom      3.8187064292    -0.1485052500     3.8244903807   Al  0.0 0.0    4.17558303e-14 -5.79553264e-14  1.30522675e-14
atom      3.6702011792     3.6702011792    -0.0000000000   Al  0.0 0.0    7.81412238e-14  9.02152399e-14 -1.31589940e-14
energy -7.900362110503286e+01
charge 0.0000
end
begin
comment 4 atoms, species Al4
lattice      7.6374128584    -0.2121503572    -0.0000000000
lattice     -0.2121503572     7.6374128584    -0.0000000000
lattice     -0.0000000000    -0.0000000000     7.6433104745
atom      0.0000000000     0.0000000000     0.0000000000   Al  0.0 0.0   -8.08701285e-14 -1.56012621e-13 -1.53131413e-13
atom     -0.1060751786     3.8187064292     3.8216552372   Al  0.0 0.0   -3.08339556e-14  1.34375384e-13  1.53187856e-13
atom      3.8187064292    -0.1060751786     3.8216552372   Al  0.0 0.0    3.09483275e-14 -1.34301278e-13  1.53038997e-13
atom      3.7126312506     3.7126312506    -0.0000000000   Al  0.0 0.0    8.08414751e-14  1.56021078e-13 -1.53041097e-13
energy -7.900455418015775e+01
charge 0.0000
end
begin
comment 4 atoms, species Al4
lattice      7.6374128584    -0.1272902143    -0.0000000000
lattice     -0.1272902143     7.6374128584    -0.0000000000
lattice     -0.0000000000    -0.0000000000     7.6395349514
atom      0.0000000000     0.0000000000     0.0000000000   Al  0.0 0.0    1.00034020e-13  1.23346010e-14  1.37718980e-13
atom     -0.0636451072     3.8187064292     3.8197674757   Al  0.0 0.0    8.86307440e-14  9.62574182e-15 -1.37746680e-13
atom      3.8187064292    -0.0636451072     3.8197674757   Al  0.0 0.0   -8.86206449e-14 -9.66759552e-15 -1.37788773e-13
atom      3.7550613220     3.7550613220    -0.0000000000   Al  0.0 0.0   -1.00045918e-13 -1.22063606e-14  1.37767705e-13
energy -7.900516603799025e+01
charge 0.0000
end
begin
comment 4 atoms, species Al4
lattice      7.6374128584    -0.0424300714    -0.0000000000
lattice     -0.0424300714     7.6374128584    -0.0000000000
lattice     -0.0000000000    -0.0000000000     7.6376485883
atom      0.0000000000     0.0000000000     0.0000000000   Al  0.0 0.0    1.92638256e-13 -9.01030778e-14  2.13000886e-13
atom     -0.0212150357     3.8187064292     3.8188242941   Al  0.0 0.0    2.00587086e-13  1.05221357e-13 -2.12846206e-13
atom      3.8187064292    -0.0212150357     3.8188242941   Al  0.0 0.0   -2.00622790e-13 -1.05171753e-13 -2.12865568e-13
atom      3.7974913935     3.7974913935    -0.0000000000   Al  0.0 0.0   -1.92596669e-13  9.01091047e-14  2.12866452e-13
energy -7.900546969547642e+01
charge 0.0000
end
begin
comment 4 atoms, species Al4
lattice      7.6374128584     0.0424300714    -0.0000000000
lattice      0.0424300714     7.6374128584    -0.0000000000
lattice     -0.0000000000    -0.0000000000     7.6376485883
atom      0.0000000000     0.0000000000     0.0000000000   Al  0.0 0.0    2.00579337e-13 -1.05283794e-13  2.12798124e-13
atom      0.0212150357     3.8187064292     3.8188242941   Al  0.0 0.0    1.92571300e-13  9.01074962e-14 -2.12895721e-13
atom      3.8187064292     0.0212150357     3.8188242941   Al  0.0 0.0   -1.92654895e-13 -9.02171288e-14 -2.12588827e-13
atom      3.8399214649     3.8399214649    -0.0000000000   Al  0.0 0.0   -2.00526979e-13  1.05283781e-13  2.13005663e-13
energy -7.900546969547642e+01
charge 0.0000
end
begin
comment 4 atoms, species Al4
lattice      7.6374128584     0.1272902143    -0.0000000000
lattice      0.1272902143     7.6374128584    -0.0000000000
lattice     -0.0000000000    -0.0000000000     7.6395349514
atom      0.0000000000     0.0000000000     0.0000000000   Al  0.0 0.0    8.86038778e-14 -9.50371453e-15  1.37487033e-13
atom      0.0636451072     3.8187064292     3.8197674757   Al  0.0 0.0    9.99856210e-14 -1.23296045e-14 -1.37809803e-13
atom      3.8187064292     0.0636451072     3.8197674757   Al  0.0 0.0   -9.99114998e-14  1.21800909e-14 -1.37800296e-13
atom      3.8823515363     3.8823515363    -0.0000000000   Al  0.0 0.0   -8.86814422e-14  9.61334944e-15  1.37703846e-13
energy -7.900516603799025e+01
charge 0.0000
end
begin
comment 4 atoms, species Al4
lattice      7.6374128584     0.2121503572    -0.0000000000
lattice      0.2121503572     7.6374128584    -0.0000000000
lattice     -0.0000000000    -0.0000000000     7.6433104745
atom      0.0000000000     0.0000000000     0.0000000000   Al  0.0 0.0   -3.08945765e-14 -1.34467378e-13 -1.52945916e-13
atom      0.1060751786     3.8187064292     3.8216552372   Al  0.0 0.0   -8.07748264e-14  1.56041862e-13  1.53043482e-13
atom      3.8187064292     0.1060751786     3.8216552372   Al  0.0 0.0    8.08231013e-14 -1.55971945e-13  1.53232586e-13
atom      3.9247816078     3.9247816078    -0.0000000000   Al  0.0 0.0    3.08374854e-14  1.34432373e-13 -1.53445035e-13
energy -7.900455418015775e+01
charge 0.0000
end
begin
comment 4 atoms, species Al4
lattice      7.6374128584     0.2970105000    -0.0000000000
lattice      0.2970105000     7.6374128584    -0.0000000000
lattice     -0.0000000000    -0.0000000000     7.6489807614
atom      0.0000000000     0.0000000000     0.0000000000   Al  0.0 0.0   -4.17595979e-14 -5.80529057e-14 -1.31359220e-14
atom      0.1485052500     3.8187064292     3.8244903807   Al  0.0 0.0   -7.81846248e-14  9.02756207e-14  1.29761589e-14
atom      3.8187064292     0.1485052500     3.8244903807   Al  0.0 0.0    7.80822007e-14 -9.02896476e-14  1.32062812e-14
atom      3.9672116792     3.9672116792    -0.0000000000   Al  0.0 0.0    4.18441430e-14  5.79884363e-14 -1.31517866e-14
energy -7.900362110503286e+01
charge 0.0000
end
begin
comment 4 atoms, species Al4
lattice      7.6374128584     0.3818706429    -0.0000000000
lattice      0.3818706429     7.6374128584    -0.0000000000
lattice     -0.0000000000    -0.0000000000     7.6565542440
atom      0.0000000000     0.0000000000     0.0000000000   Al  0.0 0.0    1.89312381e-15  3.61500002e-14 -1.14594812e-14
atom      0.1909353215     3.8187064292     3.8282771220   Al  0.0 0.0    4.95885993e-14 -5.36699281e-14  1.15130429e-14
atom      3.8187064292     0.1909353215     3.8282771220   Al  0.0 0.0   -4.94179047e-14  5.34662157e-14  1.15949542e-14
atom      4.0096417506     4.0096417506    -0.0000000000   Al  0.0 0.0   -1.90370885e-15 -3.60517904e-14 -1.13175012e-14
energy -7.900233925379338e+01
charge 0.0000
end
begin
comment 4 atoms, species Al4
lattice      7.6336283214    -0.3816814161     0.0000000000
lattice     -0.3816814161     7.6336283214    -0.0000000000
lattice      0.0000000000    -0.0000000000     7.6527602219
atom      0.0000000000     0.0000000000     0.0000000000   Al  0.0 0.0    2.52974058e-14  3.73159232e-14 -2.29847093e-13
atom     -0.1908407080     3.8168141607     3.8263801110   Al  0.0 0.0   -1.72828191e-14 -3.46688733e-14  2.29712240e-13
atom      3.8168141607    -0.1908407080     3.8263801110   Al  0.0 0.0    1.71976030e-14  3.46939408e-14  2.29807355e-13
atom      3.6259734527     3.6259734527    -0.0000000000   Al  0.0 0.0   -2.53359841e-14 -3.73849263e-14 -2.29917576e-13
energy -7.900251916535461e+01
charge 0.0000
end
begin
comment 4 atoms, species Al4
lattice      7.6336283214    -0.2968633236     0.0000000000
lattice     -0.2968633236     7.6336283214    -0.0000000000
lattice      0.0000000000    -0.0000000000     7.6451904922
atom      0.0000000000     0.0000000000     0.0000000000   Al  0.0 0.0   -5.82958510e-15 -1.58126517e-13  8.93833533e-14
atom     -0.1484316618     3.8168141607     3.8225952461   Al  0.0 0.0    9.36949203e-14  1.81919787e-13 -8.94914566e-14
atom      3.8168141607    -0.1484316618     3.8225952461   Al  0.0 0.0   -9.36321110e-14 -1.81832595e-13 -8.94947880e-14
atom      3.6683824989     3.6683824989    -0.0000000000   Al  0.0 0.0    5.86006955e-15  1.58146668e-13  8.95739310e-14
energy -7.900376232617927e+01
charge 0.0000
end
begin
comment 4 atoms, species Al4
lattice      7.6336283214    -0.2120452311     0.0000000000
lattice     -0.2120452311     7.6336283214    -0.0000000000
lattice      0.0000000000    -0.0000000000     7.6395230151
atom      0.0000000000     0.0000000000     0.0000000000   Al  0.0 0.0   -2.03443396e-13  1.31616475e-13 -1.06034559e-13
atom     -0.1060226156     3.8168141607     3.8197615075   Al  0.0 0.0   -2.66492997e-13 -2.22586567e-13  1.06211871e-13
atom      3.8168141607    -0.1060226156     3.8197615075   Al  0.0 0.0    2.66510940e-13  2.22616560e-13  1.06096992e-13
atom      3.7107915451     3.7107915451    -0.0000000000   Al  0.0 0.0    2.03426280e-13 -1.31633684e-13 -1.06040056e-13
energy -7.900465956512691e+01
charge 0.0000
end
begin
comment 4 atoms, species Al4
lattice      7.6336283214    -0.1272271387     0.0000000000
lattice     -0.1272271387     7.6336283214    -0.0000000000
lattice      0.0000000000    -0.0000000000     7.6357493629
atom      0.0000000000     0.0000000000     0.0000000000   Al  0.0 0.0    6.95858226e-15 -1.69334553e-14 -2.04244501e-13
atom     -0.0636135693     3.8168141607     3.8178746814   Al  0.0 0.0    5.13021022e-15  1.82451329e-14  2.04421340e-13
atom      3.8168141607    -0.0636135693     3.8178746814   Al  0.0 0.0   -5.18878404e-15 -1.82290413e-14  2.04385254e-13
atom      3.7532005913     3.7532005913    -0.0000000000   Al  0.0 0.0   -6.91556824e-15  1.69230889e-14 -2.04359717e-13
energy -7.900524363457228e+01
charge 0.0000
end
begin
comment 4 atoms, species Al4
lattice      7.6336283214    -0.0424090462     0.0000000000
lattice     -0.0424090462     7.6336283214    -0.0000000000
lattice      0.0000000000    -0.0000000000     7.6338639345
atom      0.0000000000     0.0000000000     0.0000000000   Al  0.0 0.0   -4.00430182e-14  1.77356400e-13  6.92580840e-14
atom     -0.0212045231     3.8168141607     3.8169319672   Al  0.0 0.0   -5.69045329e-14 -1.81102197e-13 -6.90491961e-14
atom      3.8168141607    -0.0212045231     3.8169319672   Al  0.0 0.0    5.69697092e-14  1.81077781e-13 -6.90935611e-14
atom      3.7956096376     3.7956096376    -0.0000000000   Al  0.0 0.0    3.99846068e-14 -1.77280187e-13  6.93051202e-14
energy -7.900553199252907e+01
charge 0.0000
end
begin
comment 4 atoms, species Al4
lattice      7.6336283214     0.0424090462     0.0000000000
lattice      0.0424090462     7.6336283214    -0.0000000000
lattice      0.0000000000    -0.0000000000     7.6338639345
atom      0.0000000000     0.0000000000     0.0000000000   Al  0.0 0.0   -5.69342299e-14  1.81103954e-13  6.92545819e-14
atom      0.0212045231     3.8168141607     3.8169319672   Al  0.0 0.0   -3.99406688e-14 -1.77319211e-13 -6.91547528e-14
atom      3.8168141607     0.0212045231     3.8169319672   Al  0.0 0.0    3.99382814e-14  1.77248724e-13 -6.90502031e-14
atom      3.8380186838     3.8380186838    -0.0000000000   Al  0.0 0.0    5.69158817e-14 -1.81106182e-13  6.91528433e-14
energy -7.900553199252907e+01
charge 0.0000
end
begin
comment 4 atoms, species Al4
lattice      7.6336283214     0.1272271387     0.0000000000
lattice      0.1272271387     7.6336283214    -0.0000000000
lattice      0.0000000000    -0.0000000000     7.6357493629
atom      0.0000000000     0.0000000000     0.0000000000   Al  0.0 0.0    5.15773416e-15 -1.83418445e-14 -2.04362470e-13
atom      0.0636135693     3.8168141607     3.8178746814   Al  0.0 0.0    6.98909583e-15  1.68517065e-14  2.04377863e-13
atom      3.8168141607     0.0636135693     3.8178746814   Al  0.0 0.0   -6.94870602e-15 -1.69227640e-14  2.04374731e-13
atom      3.8804277300     3.8804277300    -0.0000000000   Al  0.0 0.0   -5.14239305e-15  1.82574473e-14 -2.04262220e-13
energy -7.900524363457228e+01
charge 0.0000
end
begin
comment 4 atoms, species Al4
lattice      7.6336283214     0.2120452311     0.0000000000
lattice      0.2120452311     7.6336283214    -0.0000000000
lattice      0.0000000000    -0.0000000000     7.6395230151
atom      0.0000000000     0.0000000000     0.0000000000   Al  0.0 0.0   -2.66515862e-13  2.22671028e-13 -1.06159351e-13
atom      0.1060226156     3.8168141607     3.8197615075   Al  0.0 0.0   -2.03474892e-13 -1.31668377e-13  1.06113679e-13
atom      3.8168141607     0.1060226156     3.8197615075   Al  0.0 0.0    2.03467130e-13  1.31539582e-13  1.06205265e-13
atom      3.9228367763     3.9228367763    -0.0000000000   Al  0.0 0.0    2.66511995e-13 -2.22648457e-13 -1.06168791e-13
energy -7.900465956512691e+01
charge 0.0000
end
begin
comment 4 atoms, species Al4
lattice      7.6336283214     0.2968633236     0.0000000000
lattice      0.2968633236     7.6336283214    -0.0000000000
lattice      0.0000000000    -0.0000000000     7.6451904922
atom      0.0000000000     0.0000000000     0.0000000000   Al  0.0 0.0    9.35471772e-14 -1.81857100e-13  8.95072767e-14
atom      0.1484316618     3.8168141607     3.8225952461   Al  0.0 0.0   -5.80446177e-15  1.58049980e-13 -8.94002063e-14
atom      3.8168141607     0.1484316618     3.8225952461   Al  0.0 0.0    5.81682754e-15 -1.58048486e-13 -8.95898787e-14
atom      3.9652458225     3.9652458225    -0.0000000000   Al  0.0 0.0   -9.34895381e-14  1.81777843e-13  8.96783212e-14
energy -7.900376232617924e+01
charge 0.0000
end
begin
comment 4 atoms, species Al4
lattice      7.6336283214     0.3816814161     0.0000000000
lattice      0.3816814161     7.6336283214    -0.0000000000
lattice      0.0000000000    -0.0000000000     7.6527602219
atom      0.0000000000     0.0000000000     0.0000000000   Al  0.0 0.0   -1.72295439e-14  3.46301939e-14 -2.29568113e-13
atom      0.1908407080     3.8168141607     3.8263801110   Al  0.0 0.0    2.53064877e-14 -3.73462401e-14  2.29806205e-13
atom      3.8168141607     0.1908407080     3.8263801110   Al  0.0 0.0   -2.52731469e-14  3.74522447e-14  2.29906150e-13
atom      4.0076548687     4.0076548687    -0.0000000000   Al  0.0 0.0    1.72168686e-14 -3.47198642e-14 -2.29863096e-13
energy -7.900251916535461e+01
charge 0.0000
end
