################################################################################
# Symmetry function scaling data.
################################################################################
# Col  Name     Description
################################################################################
# 1    e_index  Element index.
# 2    sf_index Symmetry function index.
# 3    sf_min   Symmetry function minimum.
# 4    sf_max   Symmetry function maximum.
# 5    sf_mean  Symmetry function mean.
# 6    sf_sigma Symmetry function sigma.
#########################################################################################################################
#        1          2                        3                        4                        5                        6
#  e_index   sf_index                   sf_min                   sf_max                  sf_mean                 sf_sigma
#########################################################################################################################
         1          1   0.0000000000000000E+00   2.7130087986651069E-01   4.3451582172161690E-02   4.0476337998165295E-02
         1          2   0.0000000000000000E+00   3.9521006441658579E-01   5.3811084253398603E-02   6.6874285946264295E-02
         1          3   0.0000000000000000E+00   4.0168290533602308E-01   6.5738402905264628E-02   6.0825486334489684E-02
         1          4   0.0000000000000000E+00   2.4046181592039129E-01   2.9354294736947343E-02   3.7507062820280990E-02
         1          5   0.0000000000000000E+00   2.4741540793141964E-01   3.7315441308638619E-02   3.5520605284800617E-02
         1          6   0.0000000000000000E+00   7.5654601524906370E-02   9.1928321802441978E-03   9.7807382133741089E-03
         1          7   0.0000000000000000E+00   7.7250416149065845E-02   7.3911231567867428E-03   1.0135894812156212E-02
         1          8   0.0000000000000000E+00   8.1172777817268546E-02   1.0297159018642695E-02   1.0637580627864877E-02
         1          9   0.0000000000000000E+00   1.9398115570470935E-02   1.2025308198694480E-03   1.5366618043831019E-03
         1         10   0.0000000000000000E+00   2.3133128005496801E+00   7.5194089322559687E-01   4.3106285432282065E-01
         1         11   0.0000000000000000E+00   3.0010780517580606E+00   5.4862972036524993E-01   6.1668615624778744E-01
         1         12   0.0000000000000000E+00   2.4911561244419191E+00   5.3903124404446934E-01   4.4928567656581586E-01
         1         13   0.0000000000000000E+00   2.9826262711294032E+00   1.1210113165677307E+00   5.7562367966361139E-01
         1         14   0.0000000000000000E+00   2.7437748285192916E+00   6.3886264376992585E-01   5.2652124694681224E-01
         1         15   0.0000000000000000E+00   3.5934987016583770E+00   1.3927779506939577E+00   7.1103059814904257E-01
         1         16   0.0000000000000000E+00   4.6057570471934364E+00   8.5807717554014862E-01   9.6105580248986289E-01
         1         17   0.0000000000000000E+00   1.0082881183212058E+00   3.7837847354900145E-01   2.0472346421124116E-01
         1         18   0.0000000000000000E+00   1.2682336977508362E+00   2.5181308465732311E-01   2.8100106792242202E-01
         1         19   0.0000000000000000E+00   9.4491266385583783E-01   2.2938362919424971E-01   1.9280175507125588E-01
         1         20   0.0000000000000000E+00   8.4763975574962860E+00   3.0518765219808688E+00   1.6071940048472142E+00
         1         21   0.0000000000000000E+00   1.0748267047165832E+01   2.0259510662323374E+00   2.2639145943874346E+00
         1         22   0.0000000000000000E+00   8.3310838761832855E+00   1.8728260114253674E+00   1.5393548344257442E+00
         1         23   0.0000000000000000E+00   5.4920720965717118E+00   1.2443869398523528E+00   1.0303271502033755E+00
         1         24   0.0000000000000000E+00   7.0984783855438716E+00   2.6668269965211291E+00   1.3667528744140953E+00
         1         25   0.0000000000000000E+00   8.9648578154867433E+00   1.7007066249409570E+00   1.9124869871251877E+00
         1         26   0.0000000000000000E+00   2.0151086797308357E+00   7.7141925294419833E-01   3.7391528674599150E-01
         1         27   0.0000000000000000E+00   2.4366353981449778E+00   4.7168895024185420E-01   5.3129262146677481E-01
         1         28   0.0000000000000000E+00   1.9107057977638793E+00   4.2135045622433243E-01   3.5048577693049515E-01
         1         29   0.0000000000000000E+00   3.7491201589131458E+00   1.4076576494826685E+00   7.2723873245313619E-01
         1         30   0.0000000000000000E+00   4.6463682690736228E+00   9.1073352178661771E-01   1.0182715780345826E+00
         1         31   0.0000000000000000E+00   3.7008021682226286E+00   8.1305311876690878E-01   6.8194857638076900E-01
         1         32   0.0000000000000000E+00   5.0690551122470273E+00   1.9907021576327413E+00   1.0248051045533877E+00
         1         33   0.0000000000000000E+00   4.7395802338369561E+00   1.0857905599913082E+00   8.8818615156574321E-01
         1         34   0.0000000000000000E+00   6.4205452622922467E-04   3.5442976890920184E-05   6.4929266606817015E-05
         1         35   0.0000000000000000E+00   1.2836623600980339E-03   2.8452952470513306E-05   7.3170487911164141E-05
         1         36   0.0000000000000000E+00   1.3626499514584232E-03   2.4898556026674154E-05   8.0631535868298242E-05
         1         37   0.0000000000000000E+00   2.5700379798456234E-02   2.1042808955654044E-03   2.9947575803841199E-03
         1         38   0.0000000000000000E+00   1.7800106759302152E-02   1.6451544004476223E-03   2.3810257802759490E-03
         1         39   0.0000000000000000E+00   1.8763266983923031E-02   3.0185957883038469E-03   3.1849996153236783E-03
         1         40   0.0000000000000000E+00   4.9431817414394272E-02   2.9050545407742034E-03   5.0306423167340280E-03
         1         41   0.0000000000000000E+00   1.3997369039595208E-02   1.7455454687281338E-03   2.5188997147295154E-03
         1         42   0.0000000000000000E+00   4.3603045267971569E-02   2.2787772998467651E-03   3.8037298532807196E-03
         1         43   0.0000000000000000E+00   7.2741237751882112E-02   6.0818125754845001E-03   8.6066708597962518E-03
         1         44   0.0000000000000000E+00   5.4227860229735601E-02   5.4455475175010449E-03   7.9886247827005985E-03
         1         45   0.0000000000000000E+00   6.4647867439001944E-02   1.1170900280671140E-02   1.1969621099619717E-02
         1         46   0.0000000000000000E+00   1.4149588538187272E-01   7.9718020522224417E-03   1.4147658155698203E-02
         1         47   0.0000000000000000E+00   4.6439167277597830E-02   5.7342523078951100E-03   8.0323626885487331E-03
         1         48   0.0000000000000000E+00   1.0701324985253548E-01   5.1637792310548110E-03   9.6341686311447860E-03
         1         49   0.0000000000000000E+00   2.2086448634403531E-03   1.1717484118507739E-04   1.9447515998237974E-04
         1         50   0.0000000000000000E+00   1.6622821012319434E-03   1.4510722922457035E-04   1.8397401719889370E-04
         1         51   0.0000000000000000E+00   5.2482213297243372E-03   2.5668004261918673E-04   4.2041604137126558E-04
         1         52   0.0000000000000000E+00   3.4932531194641687E-02   2.8245220765525272E-03   4.0061455822960413E-03
         1         53   0.0000000000000000E+00   2.8412820964042206E-02   2.7515738124615930E-03   4.1265506473732423E-03
         1         54   0.0000000000000000E+00   3.5445001154410370E-02   5.9392895286584386E-03   6.5231275591943420E-03
         1         55   0.0000000000000000E+00   7.1547800778128737E-02   3.7195102619682935E-03   6.7727669514206518E-03
         1         56   0.0000000000000000E+00   2.5539277466861337E-02   2.9704268377530466E-03   4.1337102539865918E-03
         1         57   0.0000000000000000E+00   4.9365377804824771E-02   2.3455033682424119E-03   4.6472465575690845E-03
         1         58   0.0000000000000000E+00   5.6732110544889256E-03   7.8180875211595680E-04   8.7887434040060134E-04
         1         59   0.0000000000000000E+00   1.3769703298290982E-02   5.7857802371773747E-04   1.0847870387254363E-03
         1         60   0.0000000000000000E+00   2.0237198064180253E-02   1.3207301637142386E-03   2.1433914797096493E-03
         1         61   0.0000000000000000E+00   1.5690604176693504E-02   1.3177811502390775E-03   2.0846531342420698E-03
         1         62   0.0000000000000000E+00   1.9817822298263430E-02   2.9378324904236288E-03   3.3443208617338202E-03
         1         63   0.0000000000000000E+00   1.5915960783900007E-02   1.5708217974910454E-03   2.2512862020814955E-03
         1         64   0.0000000000000000E+00   1.5509128102958878E-02   6.5380780267288612E-04   1.3966557804393110E-03
         2          1   0.0000000000000000E+00   2.3254633775918881E-01   1.5657514090129495E-02   2.8314060336339420E-02
         2          2   0.0000000000000000E+00   5.4113541752253558E-01   1.8384206808808540E-01   7.5472476658862572E-02
         2          3   0.0000000000000000E+00   4.4941202346886466E-01   2.7426931320994118E-02   4.7414550994987148E-02
         2          4   0.0000000000000000E+00   1.3102663311515675E-01   8.5412752749083800E-03   1.5733259439160815E-02
         2          5   0.0000000000000000E+00   3.0261633641930086E-01   4.9189805132432249E-02   2.3608249226591504E-02
         2          6   0.0000000000000000E+00   4.0340335151976187E-02   2.1506092392472383E-03   4.1805192059893330E-03
         2          7   0.0000000000000000E+00   9.7455033541642963E-02   4.8047667659883095E-03   9.4501609862175425E-03
         2          8   0.0000000000000000E+00   1.4936132649741432E-01   8.5369758952293512E-03   5.1611826680796110E-03
         2          9   0.0000000000000000E+00   1.8609504405255648E+00   1.5963583889949476E-01   2.5342363398206125E-01
         2         10   7.9137008109662673E-03   3.0618245756250939E+00   1.7405806356175735E+00   5.2709718313862952E-01
         2         11   0.0000000000000000E+00   2.6712996533767206E+00   2.1988223150412342E-01   3.1219938458824587E-01
         2         12   7.9991980618967853E-02   3.7536255694142491E+00   2.2651079932838960E+00   6.3847318372489825E-01
         2         13   0.0000000000000000E+00   2.5732384304193410E+00   2.4967635669949884E-01   3.7789045523485770E-01
         2         14   1.7868933984131832E-02   4.6131245351063086E+00   2.7438285615594609E+00   7.6115354159238524E-01
         2         15   0.0000000000000000E+00   3.5793494624290738E+00   3.3144850379715601E-01   4.3633318575653740E-01
         2         16   0.0000000000000000E+00   6.8113357282940745E-01   7.3270534794176292E-02   1.1217881692689766E-01
         2         17   6.0692115469204951E-02   1.2939796937831123E+00   7.6871321230608480E-01   2.1949696077421119E-01
         2         18   0.0000000000000000E+00   1.0318286242686225E+00   9.8728946249598951E-02   1.3092155102239408E-01
         2         19   0.0000000000000000E+00   6.2960189381387677E+00   5.8949485604245466E-01   8.9355946695861976E-01
         2         20   2.0540651193532133E-01   1.0757099914280619E+01   6.4230751894290918E+00   1.8339578646990988E+00
         2         21   0.0000000000000000E+00   8.9166938451193030E+00   8.0282167464649279E-01   1.0680079762345549E+00
         2         22   0.0000000000000000E+00   4.9370903782588238E+00   4.9485785898297951E-01   7.4072106713893859E-01
         2         23   2.4695062874804735E-01   8.9382886832235702E+00   5.3873501082624715E+00   1.5196020789408304E+00
         2         24   0.0000000000000000E+00   7.0602193897475924E+00   6.7629877793677162E-01   8.8595535270028858E-01
         2         25   0.0000000000000000E+00   1.5079223913085447E+00   1.3724823588002152E-01   2.0657598394527057E-01
         2         26   9.3053139778244226E-02   2.5402801005078022E+00   1.5345869603330731E+00   4.2454720368157151E-01
         2         27   0.0000000000000000E+00   2.0211220100521055E+00   1.8872810230827833E-01   2.5024018186844382E-01
         2         28   0.0000000000000000E+00   2.6742601848343375E+00   2.6499787446350409E-01   4.0084137489383070E-01
         2         29   2.4668785236437452E-01   4.8159503680150380E+00   2.8419621598869504E+00   8.0580613705981330E-01
         2         30   0.0000000000000000E+00   3.9679456401861977E+00   3.5737613409932667E-01   4.7140875678933669E-01
         2         31   0.0000000000000000E+00   3.6709999319081024E+00   3.5565928354889048E-01   5.4281160435216325E-01
         2         32   0.0000000000000000E+00   5.0595419535452413E+00   4.6441110718610179E-01   6.1389026225522492E-01
         2         33   0.0000000000000000E+00   2.3781238563577211E-03   7.0035495574019297E-05   7.3693824232046493E-05
         2         34   0.0000000000000000E+00   5.0918094231446921E-04   1.6535587500668377E-05   3.4967723634315880E-05
         2         35   0.0000000000000000E+00   1.8451182511965204E-03   2.0956771374289150E-04   2.1812090793256795E-04
         2         36   0.0000000000000000E+00   9.5703938133711078E-04   4.1074732003620357E-05   7.4513796294086343E-05
         2         37   0.0000000000000000E+00   1.9160303510267975E-03   9.0600248833809948E-06   5.7803963003561302E-05
         2         38   0.0000000000000000E+00   1.9109608016394643E-02   3.2163325746421384E-04   1.1559031638354773E-03
         2         39   0.0000000000000000E+00   1.8330095825304909E-02   1.6114195923711298E-03   2.3626915559356982E-03
         2         40   0.0000000000000000E+00   2.1147498357748519E-02   5.5389949257097810E-04   1.4346391920066640E-03
         2         41   0.0000000000000000E+00   6.7718605908149890E-02   1.5192419748674820E-02   9.2373740340577232E-03
         2         42   0.0000000000000000E+00   2.4729374978233392E-02   2.5822960012454369E-03   3.4849379549313371E-03
         2         43   0.0000000000000000E+00   5.2613759299165987E-02   7.5623686702038959E-04   2.6781470276175988E-03
         2         44   0.0000000000000000E+00   4.8733751343448380E-02   7.0996429097374704E-04   2.5223074090132513E-03
         2         45   0.0000000000000000E+00   5.5620556497415263E-02   4.7182999337841503E-03   6.8896023337725173E-03
         2         46   0.0000000000000000E+00   6.3774078679171051E-02   1.6225115703858242E-03   4.2975898156267572E-03
         2         47   0.0000000000000000E+00   1.5306321261255521E-01   4.3379506233898434E-02   2.5810047718390627E-02
         2         48   0.0000000000000000E+00   9.4495844519533356E-02   7.8620746056265976E-03   1.0911104032982710E-02
         2         49   0.0000000000000000E+00   1.2810640820536237E-01   1.6568965505343832E-03   5.6912642835641250E-03
         2         50   0.0000000000000000E+00   1.5882627401349514E-03   2.8682292625262333E-05   1.1173040234097375E-04
         2         51   0.0000000000000000E+00   2.2206278762711162E-03   3.9288402059474364E-05   9.7324551727360283E-05
         2         52   0.0000000000000000E+00   6.7934064691572860E-03   8.7636318446919468E-05   3.5089434639968122E-04
         2         53   0.0000000000000000E+00   2.1313609889592994E-02   2.8641774182785313E-04   1.0312613975704665E-03
         2         54   0.0000000000000000E+00   2.8412820964042195E-02   2.2603378022262219E-03   3.3307488918628302E-03
         2         55   0.0000000000000000E+00   3.1964886818756436E-02   7.7806682788493476E-04   2.0500865274562345E-03
         2         56   0.0000000000000000E+00   7.6705016896199324E-02   2.0778830422664304E-02   1.2629429324739334E-02
         2         57   0.0000000000000000E+00   5.3217341266035965E-02   3.9273085467121712E-03   5.6621438246699327E-03
         2         58   0.0000000000000000E+00   5.9837980005572722E-02   7.1944348790209790E-04   2.4933097818906347E-03
         2         59   0.0000000000000000E+00   1.7099619212795101E-02   2.1093355918263591E-04   8.0215599785037127E-04
         2         60   0.0000000000000000E+00   1.4035220477920799E-02   1.7300248619167170E-04   6.6235733989788808E-04
         2         61   0.0000000000000000E+00   2.1970614970091267E-02   4.4205004056607473E-04   1.2358454705456764E-03
         2         62   0.0000000000000000E+00   3.0477704628288832E-02   2.2064284534943045E-03   3.2081759177742071E-03
         2         63   0.0000000000000000E+00   1.3295628956873510E-02   9.4214034190453642E-04   1.4595589991838556E-03
         2         64   0.0000000000000000E+00   3.2388703209206143E-02   3.3498866789066431E-04   1.2920124890449878E-03
         3          1   0.0000000000000000E+00   3.0534160472937577E-01   6.2953537090819703E-02   6.4378842598892178E-02
         3          2   0.0000000000000000E+00   4.3901553989464814E-01   9.0266611138905883E-02   8.5497878356567858E-02
         3          3   0.0000000000000000E+00   3.1798281289562552E-01   8.0823859942580373E-02   7.4352849996353429E-02
         3          4   0.0000000000000000E+00   2.3885378059727169E-01   4.9750047110253784E-02   4.8231229075367373E-02
         3          5   0.0000000000000000E+00   7.0133947151049036E-02   9.8609420606760190E-03   1.1372651200776235E-02
         3          6   0.0000000000000000E+00   9.7069598005848537E-02   1.5813289799089490E-02   1.5821576267100776E-02
         3          7   0.0000000000000000E+00   1.3197414625966286E-01   1.7006371747081601E-02   1.8746048280242591E-02
         3          8   0.0000000000000000E+00   8.2064372358295584E-02   6.6443879567315688E-03   8.3299501935984316E-03
         3          9   0.0000000000000000E+00   2.0345748609287804E+00   5.1619634666157277E-01   4.5113578926766340E-01
         3         10   0.0000000000000000E+00   3.0954795788567258E+00   7.2366914312228470E-01   6.7414892527570136E-01
         3         11   0.0000000000000000E+00   1.8888161332277413E+00   6.2851375088807904E-01   3.9560748611596996E-01
         3         12   0.0000000000000000E+00   2.7835818165473478E+00   7.2914103599480196E-01   6.0173812985155117E-01
         3         13   0.0000000000000000E+00   4.6389842936844925E+00   1.0908523762528446E+00   1.0352796007702101E+00
         3         14   0.0000000000000000E+00   3.7701957694063251E+00   1.3833316013057295E+00   7.9837402928700829E-01
         3         15   0.0000000000000000E+00   7.4445323574305933E-01   2.1966628591992440E-01   1.9431152671837118E-01
         3         16   0.0000000000000000E+00   1.2830126717283274E+00   3.2493344935183466E-01   3.0850198296981546E-01
         3         17   0.0000000000000000E+00   1.0398714360338936E+00   3.5347688963357299E-01   2.1805093241899151E-01
         3         18   0.0000000000000000E+00   6.8540120114541434E+00   1.7934877722056244E+00   1.5318851259979085E+00
         3         19   0.0000000000000000E+00   1.0930526222049570E+01   2.6422201984998983E+00   2.4783305790974741E+00
         3         20   0.0000000000000000E+00   8.5560428400554542E+00   3.0509437574234002E+00   1.7907511243408973E+00
         3         21   0.0000000000000000E+00   5.3797510210661272E+00   1.4552392617681909E+00   1.2384288528638785E+00
         3         22   0.0000000000000000E+00   7.1949767148699886E+00   2.6008393644287882E+00   1.5397607796383270E+00
         3         23   0.0000000000000000E+00   1.6282835166354970E+00   4.0350085188984741E-01   3.4825438684952237E-01
         3         24   0.0000000000000000E+00   2.4751725599835974E+00   6.2113570135368590E-01   5.8915260724056162E-01
         3         25   0.0000000000000000E+00   2.0238281177890096E+00   7.6068291558088130E-01   4.2844625869710234E-01
         3         26   0.0000000000000000E+00   2.9639184052866336E+00   7.7860987500504319E-01   6.7707825115209130E-01
         3         27   0.0000000000000000E+00   4.7109257010339505E+00   1.1761845373629727E+00   1.1222955784407196E+00
         3         28   0.0000000000000000E+00   3.9109542596250533E+00   1.3626028731394584E+00   8.2343885926318405E-01
         3         29   0.0000000000000000E+00   3.9531329681972718E+00   1.0397933821084753E+00   8.5679830487270536E-01
         3         30   0.0000000000000000E+00   5.4169077932845138E+00   1.9639966605804067E+00   1.1307978173725202E+00
         3         31   0.0000000000000000E+00   9.1490846784391333E-04   4.4651171037761716E-05   9.4303450241087639E-05
         3         32   0.0000000000000000E+00   1.7681128549340852E-03   6.4754450329931965E-05   1.1789374816695619E-04
         3         33   0.0000000000000000E+00   1.2904327253027614E-03   6.3044142830963895E-05   1.3628408943730093E-04
         3         34   0.0000000000000000E+00   7.8562068941600313E-04   3.9026341930067575E-05   8.1300775218070222E-05
         3         35   0.0000000000000000E+00   2.2201967365136069E-04   3.9841998164129007E-06   8.5524888580488805E-06
         3         36   0.0000000000000000E+00   2.6379508126063271E-04   6.9520639842329905E-06   1.4483943467390422E-05
         3         37   0.0000000000000000E+00   2.4759696433538890E-02   2.3871808945639980E-03   3.5836517244271092E-03
         3         38   0.0000000000000000E+00   2.0740167406732641E-02   2.0757942601232369E-03   3.0063805593290760E-03
         3         39   0.0000000000000000E+00   2.7787481096631692E-02   3.4187517890260375E-03   4.4478113276720669E-03
         3         40   0.0000000000000000E+00   5.6917290746817492E-02   4.9137350117755829E-03   6.4675434987884689E-03
         3         41   0.0000000000000000E+00   3.0141137754892619E-02   3.7683838221974860E-03   4.9001927232094136E-03
         3         42   0.0000000000000000E+00   6.2364291736539706E-02   4.4070134241324613E-03   6.6304708314452454E-03
         3         43   0.0000000000000000E+00   4.4528654327607782E-02   5.0871379979217958E-03   7.2131639807932260E-03
         3         44   0.0000000000000000E+00   7.9215391041690453E-02   1.0835785525908108E-02   1.3378321986910999E-02
         3         45   0.0000000000000000E+00   1.5740800851547540E-01   1.2273348900880034E-02   1.6880093790523326E-02
         3         46   0.0000000000000000E+00   9.4495844519533329E-02   1.2115666294774959E-02   1.5994103255632181E-02
         3         47   0.0000000000000000E+00   7.8667382783460776E-02   9.7252675540845639E-03   1.2856315566441573E-02
         3         48   0.0000000000000000E+00   1.3342844308868191E-02   1.4333756246571560E-03   2.0962070081807522E-03
         3         49   0.0000000000000000E+00   3.1080390238242342E-03   2.3626224140225419E-04   4.1497166419140623E-04
         3         50   0.0000000000000000E+00   2.9575484366936829E-03   1.8659079218545440E-04   2.8659210252362052E-04
         3         51   0.0000000000000000E+00   3.5195475659041543E-03   2.6618346741050448E-04   4.0490081949567328E-04
         3         52   0.0000000000000000E+00   4.7871830414905770E-03   4.4358560732425060E-04   7.4610677412879824E-04
         3         53   0.0000000000000000E+00   2.7717003731169143E-02   1.4940871967108497E-03   2.4000866812000890E-03
         3         54   0.0000000000000000E+00   3.8713090276647842E-02   5.5390784405953747E-03   6.7647794711795687E-03
         3         55   0.0000000000000000E+00   5.3217341266036014E-02   6.3904444144160652E-03   8.5881660651667101E-03
         3         56   0.0000000000000000E+00   4.3249346576222161E-02   5.1322508476623653E-03   6.9061891309458523E-03
         3         57   0.0000000000000000E+00   7.1369375298262483E-03   6.2304958240211913E-04   1.0085417379601875E-03
         3         58   0.0000000000000000E+00   9.2388487700062385E-03   9.3692530948370962E-04   1.3152274534058144E-03
         3         59   0.0000000000000000E+00   8.6061710662447433E-03   9.4266174859429942E-04   1.3505596204158193E-03
         3         60   0.0000000000000000E+00   1.8772081983140343E-02   1.1579837449834898E-03   1.8997250962681025E-03
         3         61   0.0000000000000000E+00   1.5135534457707539E-02   1.3804153889884960E-03   2.0340254558096236E-03
         3         62   0.0000000000000000E+00   2.5730517063382894E-02   2.8961218093288988E-03   3.8802328369143377E-03
         3         63   0.0000000000000000E+00   2.3851411709667591E-02   2.5958063935189084E-03   3.6288199136687588E-03
         3         64   0.0000000000000000E+00   1.6504331880656309E-02   1.7387557731411731E-03   2.5177518330704676E-03
