begin
comment uuid: 27210361-b6fd-468a-9a66-11b2134db53d
lattice     11.0254181497     0.0000000000     0.0000000000
lattice     -5.5127090749     9.5482922050     0.0000000000
lattice      0.0000000000     0.0000000000    18.7355007719
atom      2.9492990000     6.6360630000     1.5612920000   Mg  0.0 0.0   -3.78186050e-02 -3.20754350e-02 -3.61455000e-04
atom     -1.7089400000     8.7844290000     1.5612920000   Mg  0.0 0.0    4.66874450e-02 -1.67141550e-02 -3.61455000e-04
atom     -1.2403600000     3.6760920000     1.5612920000   Mg  0.0 0.0   -8.86884000e-03  4.87895900e-02 -3.61455000e-04
atom      2.5634100000     2.9122290000     4.6838750000   Mg  0.0 0.0   -3.59630750e-02 -5.33779950e-02 -0.00000000e+00
atom      7.2216490000     0.7638630000     4.6838750000   Mg  0.0 0.0    6.42082400e-02 -4.45594000e-03 -0.00000000e+00
atom      6.7530690000     5.8722000000     4.6838750000   Mg  0.0 0.0   -2.82451650e-02  5.78339350e-02  0.00000000e+00
atom      2.9492990000     6.6360630000     7.8064590000   Mg  0.0 0.0   -3.78186050e-02 -3.20754350e-02  3.61455000e-04
atom     -1.7089400000     8.7844290000     7.8064590000   Mg  0.0 0.0    4.66874450e-02 -1.67141550e-02  3.61455000e-04
atom     -1.2403600000     3.6760920000     7.8064590000   Mg  0.0 0.0   -8.86884000e-03  4.87895900e-02  3.61455000e-04
atom      2.5634100000     2.9122290000    10.9290420000   Mg  0.0 0.0    3.78186050e-02  3.20754350e-02 -3.61455000e-04
atom      7.2216490000     0.7638630000    10.9290420000   Mg  0.0 0.0   -4.66874450e-02  1.67141550e-02 -3.61455000e-04
atom      6.7530690000     5.8722000000    10.9290420000   Mg  0.0 0.0    8.86884000e-03 -4.87895900e-02 -3.61455000e-04
atom      2.9492990000     6.6360630000    14.0516260000   Mg  0.0 0.0    3.59630750e-02  5.33779900e-02  0.00000000e+00
atom     -1.7089400000     8.7844290000    14.0516260000   Mg  0.0 0.0   -6.42082300e-02  4.45594000e-03 -0.00000000e+00
atom     -1.2403600000     3.6760920000    14.0516260000   Mg  0.0 0.0    2.82451600e-02 -5.78339300e-02  0.00000000e+00
atom      2.5634100000     2.9122290000    17.1742090000   Mg  0.0 0.0    3.78186050e-02  3.20754350e-02  3.61455000e-04
atom      7.2216490000     0.7638630000    17.1742090000   Mg  0.0 0.0   -4.66874450e-02  1.67141550e-02  3.61460000e-04
atom      6.7530690000     5.8722000000    17.1742090000   Mg  0.0 0.0    8.86884000e-03 -4.87895900e-02  3.61455000e-04
atom      0.0000000000     0.0000000000     1.5612920000   Si  0.0 0.0   -0.00000000e+00  0.00000000e+00  4.78276405e-01
atom      5.5127090000     3.1827640000     1.5612920000   Si  0.0 0.0   -0.00000000e+00 -0.00000000e+00 -2.05129000e-03
atom      0.0000000000     6.3655280000     4.6838750000   Si  0.0 0.0    0.00000000e+00  0.00000000e+00  0.00000000e+00
atom      0.0000000000     0.0000000000     7.8064590000   Si  0.0 0.0    0.00000000e+00 -0.00000000e+00 -4.78276405e-01
atom      0.0000000000     0.0000000000    10.9290420000   Si  0.0 0.0    5.00000000e-09 -0.00000000e+00  4.78276400e-01
atom      5.5127090000     3.1827640000     7.8064590000   Si  0.0 0.0   -0.00000000e+00  0.00000000e+00  2.05129000e-03
atom      0.0000000000     6.3655280000    10.9290420000   Si  0.0 0.0   -0.00000000e+00 -5.00000000e-09 -2.05128500e-03
atom      0.0000000000     0.0000000000    17.1742090000   Si  0.0 0.0   -0.00000000e+00  0.00000000e+00 -4.78276400e-01
atom      5.5127090000     3.1827640000    14.0516260000   Si  0.0 0.0    0.00000000e+00  5.00000000e-09 -0.00000000e+00
atom      0.0000000000     6.3655280000    17.1742090000   Si  0.0 0.0    0.00000000e+00 -5.00000000e-09  2.05128500e-03
energy -3.570414050450000e+02
charge 0.0000
end
begin
comment uuid: 92ebe112-8063-4210-991b-d84b3dc376aa
lattice     11.6992604736     0.0000000000    17.5488907104
lattice      0.0000000000     5.8496302368     0.0000000000
lattice     -8.7744453552     0.0000000000     2.9248151184
atom      0.0000000000     0.0000000000     0.0000000000   Mg  0.0 0.0    9.08661550e-02 -2.60000000e-07  1.67081350e-02
atom     -2.2378540000     2.9248140000     2.4100690000   Mg  0.0 0.0    5.27567550e-02  7.20000000e-07  2.24994200e-02
atom     -6.2140443552     2.9248140000     5.3995841184   Mg  0.0 0.0   -3.24780000e-03  4.45000000e-07 -6.31472000e-03
atom      3.4224320000     0.0000000000     6.3477210000   Mg  0.0 0.0    8.24284000e-02 -5.30000000e-07 -4.02830150e-02
atom     -0.6264723552     0.0000000000     9.2690231184   Mg  0.0 0.0    4.87285000e-04 -7.60000000e-07  2.10991100e-02
atom     -2.9248173552     2.9248140000    11.6992561184   Mg  0.0 0.0    9.08661750e-02  2.60000000e-07  1.67078950e-02
atom      3.6117740000     0.0000000000    11.1845110000   Mg  0.0 0.0    5.27566650e-02 -7.20000000e-07  2.25003650e-02
atom     -0.3644163552     0.0000000000    14.1740261184   Mg  0.0 0.0   -3.24657500e-03 -4.45000000e-07 -6.31404000e-03
atom      9.2720644736     2.9248140000    15.1221707104   Mg  0.0 0.0    8.24261100e-02  5.30000000e-07 -4.02841250e-02
atom      5.2231601184     2.9248140000    18.0434728288   Mg  0.0 0.0    4.87745000e-04  7.60000000e-07  2.10990350e-02
atom     -4.9611503552     0.0000000000     2.7261481184   Si  0.0 0.0   -2.09625420e-01 -6.05000000e-07  3.09426010e-01
atom      0.1674580000     0.0000000000     4.1969270000   Si  0.0 0.0    2.55217665e-01 -1.02500000e-06 -2.75812205e-01
atom     -2.7763883552     0.0000000000     5.5480131184   Si  0.0 0.0   -2.50695710e-01 -9.40000000e-07  8.59670300e-02
atom      0.2230460000     2.9248140000     6.2123200000   Si  0.0 0.0    1.66421630e-01  9.45000000e-07 -2.30545620e-01
atom     -2.6603093552     2.9248140000     7.5432421184   Si  0.0 0.0   -3.72225720e-01  1.09500000e-06  2.56465120e-01
atom      2.3254980000     2.9248140000     8.7472880000   Si  0.0 0.0    1.87621225e-01  6.00000000e-07 -1.59210135e-01
atom      0.8884776448     2.9248140000    11.5005901184   Si  0.0 0.0   -2.09635200e-01  6.05000000e-07  3.09401830e-01
atom      6.0170860000     2.9248140000    12.9713680000   Si  0.0 0.0    2.55218115e-01  1.02500000e-06 -2.75822045e-01
atom      3.0732441184     2.9248140000    14.3224628288   Si  0.0 0.0   -2.50695440e-01  9.35000000e-07  8.59859700e-02
atom      6.0726740000     0.0000000000    14.9867610000   Si  0.0 0.0    1.66433365e-01 -9.45000000e-07 -2.30522815e-01
atom      3.1893231184     0.0000000000    16.3176918288   Si  0.0 0.0   -3.72232190e-01 -1.09500000e-06  2.56459485e-01
atom      8.1751314736     0.0000000000    17.5217367104   Si  0.0 0.0    1.87616770e-01 -6.00000000e-07 -1.59210695e-01
energy -2.313751803800000e+02
charge 0.0000
end
begin
comment uuid: 6374fed7-831b-49c5-908d-2e43a6611b40
lattice     12.5119220793     0.0000000000    18.7678831189
lattice      0.0000000000     6.2559610396     0.0000000000
lattice     -9.3839415594     0.0000000000     3.1279805198
atom      0.0000000000     0.0000000000     0.0000000000   Mg  0.0 0.0    6.89275600e-02 -1.80000000e-07  9.61805000e-03
atom     -2.3933010000     3.1279790000     2.5774790000   Mg  0.0 0.0    3.28487650e-02  4.85000000e-07  1.38221650e-02
atom     -6.6456875594     3.1279790000     5.7746535198   Mg  0.0 0.0    4.17750000e-05  2.95000000e-07 -4.43695000e-03
atom      3.6601630000     0.0000000000     6.7886510000   Mg  0.0 0.0    5.24644100e-02 -3.55000000e-07 -2.61253450e-02
atom     -0.6699885594     0.0000000000     9.9128735198   Mg  0.0 0.0    4.24066000e-03 -5.10000000e-07  1.42541900e-02
atom      6.2559580000     3.1279790000     9.3839370000   Mg  0.0 0.0    6.89275950e-02  1.80000000e-07  9.61808500e-03
atom      3.8626570000     0.0000000000    11.9614160000   Mg  0.0 0.0    3.28486950e-02 -4.85000000e-07  1.38225800e-02
atom     -0.3897295594     0.0000000000    15.1585905198   Mg  0.0 0.0    4.26900000e-05 -3.00000000e-07 -4.43636500e-03
atom      9.9161270793     3.1279790000    16.1725971189   Mg  0.0 0.0    5.24630900e-02  3.55000000e-07 -2.61262100e-02
atom      5.5859745199     3.1279790000    19.2968196387   Mg  0.0 0.0    4.24075500e-03  5.10000000e-07  1.42538500e-02
atom     -5.3057645594     0.0000000000     2.9155135198   Si  0.0 0.0   -1.37091060e-01 -4.15000000e-07  2.17371200e-01
atom      0.1790900000     0.0000000000     4.4884570000   Si  0.0 0.0    1.66725300e-01 -6.90000000e-07 -1.78031005e-01
atom     -2.9692435594     0.0000000000     5.9333935198   Si  0.0 0.0   -1.71395900e-01 -6.10000000e-07  5.06628050e-02
atom      0.2385390000     3.1279790000     6.6438440000   Si  0.0 0.0    1.18001935e-01  6.10000000e-07 -1.52639400e-01
atom     -2.8451015594     3.1279790000     8.0672165198   Si  0.0 0.0   -2.52322340e-01  7.40000000e-07  1.63285545e-01
atom      2.4870340000     3.1279790000     9.3548970000   Si  0.0 0.0    1.17558880e-01  4.10000000e-07 -1.07781275e-01
atom      0.9501934406     3.1279790000    12.2994515198   Si  0.0 0.0   -1.37089435e-01  4.15000000e-07  2.17373450e-01
atom      6.4350490000     3.1279790000    13.8723940000   Si  0.0 0.0    1.66726760e-01  6.90000000e-07 -1.78031185e-01
atom      3.2867195199     3.1279790000    15.3173386387   Si  0.0 0.0   -1.71398140e-01  6.10000000e-07  5.06612050e-02
atom      6.4944980000     0.0000000000    16.0277810000   Si  0.0 0.0    1.18005675e-01 -6.10000000e-07 -1.52636435e-01
atom      3.4108625199     0.0000000000    17.4511626387   Si  0.0 0.0   -2.52323440e-01 -7.40000000e-07  1.63286145e-01
atom      8.7429970793     0.0000000000    18.7388431189   Si  0.0 0.0    1.17555775e-01 -4.10000000e-07 -1.07785090e-01
energy -2.337847006800000e+02
charge 0.0000
end
