begin
comment 4 atoms, species Al4
lattice      7.6367056677    -0.0000000000    -0.0000000000
lattice     -0.0000000000     7.6367056677    -0.0000000000
lattice     -0.0000000000    -0.0000000000     7.6367056677
atom      0.0000000000     0.0000000000     0.0000000000   Al  0.0 0.0   -2.05713336e-13 -2.05879316e-13 -2.05502135e-13
atom     -0.0000000000     3.8183528338     3.8183528338   Al  0.0 0.0   -2.05768392e-13  2.05796653e-13  2.05712418e-13
atom      3.8183528338    -0.0000000000     3.8183528338   Al  0.0 0.0    2.05745722e-13 -2.05862099e-13  2.05488842e-13
atom      3.8183528338     3.8183528338    -0.0000000000   Al  0.0 0.0    2.05704700e-13  2.05834060e-13 -2.05330991e-13
energy -7.900554816304390e+01
charge 0.0000
end
