begin
comment 256 atoms, species Al255Si
lattice     30.5468226708     0.0000000000     0.0000000000
lattice      0.0000000000    30.5468226708     0.0000000000
lattice      0.0000000000     0.0000000000    30.5468226708
atom      0.0000000000     0.0000000000     0.0000000000   Si  0.0 0.0    1.06980435e-15  5.45157613e-16  9.68869224e-16
atom      0.0000000000     3.7924516829     3.7924516829   Al  0.0 0.0    6.75779537e-16 -8.51805726e-08 -8.51805722e-08
atom      3.7924516829     0.0000000000     3.7924516829   Al  0.0 0.0   -8.51805724e-08  5.99808315e-16 -8.51805724e-08
atom      3.7924516829     3.7924516829     0.0000000000   Al  0.0 0.0   -8.51805723e-08 -8.51805725e-08  9.11258276e-16
atom      0.0000000000     0.0000000000     7.6187560240   Al  0.0 0.0    3.00106567e-16  2.91605347e-16 -7.52922145e-07
atom      0.0000000000     3.8155426720    11.4489145832   Al  0.0 0.0   -1.46814724e-16 -2.14131230e-07 -5.40470548e-07
atom      3.8155426720     0.0000000000    11.4489145832   Al  0.0 0.0   -2.14131230e-07  8.25832820e-17 -5.40470548e-07
atom      3.8174261132     3.8174261132     7.6315120004   Al  0.0 0.0   -4.18074031e-07 -4.18074031e-07 -8.69097396e-07
atom      0.0000000000     0.0000000000    15.2734113354   Al  0.0 0.0   -4.10217610e-17  1.80009964e-16 -1.12319631e-16
atom      0.0000000000     3.8155426720    19.0979080876   Al  0.0 0.0   -2.41812486e-16 -2.14131230e-07  5.40470548e-07
atom      3.8155426720     0.0000000000    19.0979080876   Al  0.0 0.0   -2.14131230e-07  1.54776184e-16  5.40470548e-07
atom      3.8164202227     3.8164202227    15.2734113354   Al  0.0 0.0    1.86798890e-08  1.86798888e-08  8.95010656e-16
atom      0.0000000000     0.0000000000    22.9280666468   Al  0.0 0.0   -5.72145614e-17  1.44385804e-16  7.52922145e-07
atom      0.0000000000     3.7924516829    26.7543709879   Al  0.0 0.0    1.41417123e-16 -8.51805731e-08  8.51805725e-08
atom      3.7924516829     0.0000000000    26.7543709879   Al  0.0 0.0   -8.51805729e-08  2.01600365e-16  8.51805726e-08
atom      3.8174261132     3.8174261132    22.9153106704   Al  0.0 0.0   -4.18074031e-07 -4.18074031e-07  8.69097395e-07
atom      0.0000000000     7.6187560240     0.0000000000   Al  0.0 0.0    5.07374412e-16 -7.52922145e-07  3.13296953e-16
atom      0.0000000000    11.4489145832     3.8155426720   Al  0.0 0.0    1.31701443e-16 -5.40470548e-07 -2.14131230e-07
atom      3.8174261132     7.6315120004     3.8174261132   Al  0.0 0.0   -4.18074031e-07 -8.69097397e-07 -4.18074031e-07
atom      3.8155426720    11.4489145832     0.0000000000   Al  0.0 0.0   -2.14131230e-07 -5.40470548e-07 -4.08358627e-16
atom      0.0000000000     7.6290234163     7.6290234163   Al  0.0 0.0    1.87836485e-16 -4.88945018e-07 -4.88945018e-07
atom      0.0000000000    11.4513142723    11.4513142723   Al  0.0 0.0    5.42998573e-16  1.09492241e-06  1.09492241e-06
atom      3.8178449453     7.6350134484    11.4531773783   Al  0.0 0.0   -1.75993478e-07  6.53754119e-07  7.38851411e-07
atom      3.8178449453    11.4531773783     7.6350134484   Al  0.0 0.0   -1.75993478e-07  7.38851411e-07  6.53754119e-07
atom      0.0000000000     7.6342831412    15.2734113354   Al  0.0 0.0   -1.41417123e-16  2.59289521e-07  3.01782775e-16
atom      0.0000000000    11.4513142723    19.0955083985   Al  0.0 0.0    2.70959527e-16  1.09492241e-06 -1.09492241e-06
atom      3.8178449453     7.6350134484    19.0936452924   Al  0.0 0.0   -1.75993478e-07  6.53754119e-07 -7.38851411e-07
atom      3.8167819622    11.4543538753    15.2734113354   Al  0.0 0.0   -4.05395772e-07  1.84617591e-07  9.22434420e-17
atom      0.0000000000     7.6290234163    22.9177992544   Al  0.0 0.0   -1.67325604e-16 -4.88945018e-07  4.88945017e-07
atom      0.0000000000    11.4489145832    26.7312799988   Al  0.0 0.0    1.07952003e-17 -5.40470548e-07  2.14131230e-07
atom      3.8174261132     7.6315120004    26.7293965576   Al  0.0 0.0   -4.18074030e-07 -8.69097396e-07  4.18074031e-07
atom      3.8178449453    11.4531773783    22.9118092224   Al  0.0 0.0   -1.75993477e-07  7.38851411e-07 -6.53754119e-07
atom      0.0000000000    15.2734113354     0.0000000000   Al  0.0 0.0    1.87836485e-16  7.01350667e-17 -3.60759588e-16
atom      0.0000000000    19.0979080876     3.8155426720   Al  0.0 0.0    1.47894244e-16  5.40470548e-07 -2.14131230e-07
atom      3.8164202227    15.2734113354     3.8164202227   Al  0.0 0.0    1.86798890e-08  1.97349755e-18  1.86798888e-08
atom      3.8155426720    19.0979080876     0.0000000000   Al  0.0 0.0   -2.14131230e-07  5.40470547e-07 -6.22950525e-16
atom      0.0000000000    15.2734113354     7.6342831412   Al  0.0 0.0    4.48000811e-16  1.06546729e-16  2.59289521e-07
atom      0.0000000000    19.0955083985    11.4513142723   Al  0.0 0.0    5.63509454e-16 -1.09492241e-06  1.09492241e-06
atom      3.8167819622    15.2734113354    11.4543538753   Al  0.0 0.0   -4.05395772e-07  6.20707148e-16  1.84617591e-07
atom      3.8178449453    19.0936452924     7.6350134484   Al  0.0 0.0   -1.75993477e-07 -7.38851411e-07  6.53754119e-07
atom      0.0000000000    15.2734113354    15.2734113354   Al  0.0 0.0    4.62034571e-16  3.06388657e-16  4.74196916e-16
atom      0.0000000000    19.0955083985    19.0955083985   Al  0.0 0.0   -7.34073618e-17 -1.09492241e-06 -1.09492241e-06
atom      3.8167819622    15.2734113354    19.0924687955   Al  0.0 0.0   -4.05395772e-07 -3.84161539e-16 -1.84617592e-07
atom      3.8167819622    19.0924687955    15.2734113354   Al  0.0 0.0   -4.05395772e-07 -1.84617591e-07 -2.69097394e-16
atom      0.0000000000    15.2734113354    22.9125395296   Al  0.0 0.0    2.79595687e-16  4.64011232e-16 -2.59289521e-07
atom      0.0000000000    19.0979080876    26.7312799988   Al  0.0 0.0    4.45841771e-16  5.40470548e-07  2.14131230e-07
atom      3.8164202227    15.2734113354    26.7304024480   Al  0.0 0.0    1.86798888e-08  3.53568110e-16 -1.86798881e-08
atom      3.8178449453    19.0936452924    22.9118092224   Al  0.0 0.0   -1.75993478e-07 -7.38851412e-07 -6.53754118e-07
atom      0.0000000000    22.9280666468     0.0000000000   Al  0.0 0.0    2.26699206e-16  7.52922145e-07 -1.15306233e-16
atom      0.0000000000    26.7543709879     3.7924516829   Al  0.0 0.0    5.91576975e-16  8.51805735e-08 -8.51805732e-08
atom      3.8174261132    22.9153106704     3.8174261132   Al  0.0 0.0   -4.18074030e-07  8.69097395e-07 -4.18074031e-07
atom      3.7924516829    26.7543709879     0.0000000000   Al  0.0 0.0   -8.51805727e-08  8.51805725e-08  3.38631938e-16
atom      0.0000000000    22.9177992544     7.6290234163   Al  0.0 0.0    3.44366888e-16  4.88945017e-07 -4.88945018e-07
atom      0.0000000000    26.7312799988    11.4489145832   Al  0.0 0.0    1.55450884e-16  2.14131230e-07 -5.40470547e-07
atom      3.8178449453    22.9118092224    11.4531773783   Al  0.0 0.0   -1.75993477e-07 -6.53754120e-07  7.38851411e-07
atom      3.8174261132    26.7293965576     7.6315120004   Al  0.0 0.0   -4.18074031e-07  4.18074031e-07 -8.69097397e-07
atom      0.0000000000    22.9125395296    15.2734113354   Al  0.0 0.0    2.35335366e-16 -2.59289522e-07  4.57647967e-16
atom      0.0000000000    26.7312799988    19.0979080876   Al  0.0 0.0   -1.39258083e-16  2.14131230e-07  5.40470548e-07
atom      3.8178449453    22.9118092224    19.0936452924   Al  0.0 0.0   -1.75993477e-07 -6.53754119e-07 -7.38851412e-07
atom      3.8164202227    26.7304024480    15.2734113354   Al  0.0 0.0    1.86798887e-08 -1.86798891e-08 -1.35136088e-16
atom      0.0000000000    22.9177992544    22.9177992544   Al  0.0 0.0   -1.65166564e-16  4.88945017e-07  4.88945018e-07
atom      0.0000000000    26.7543709879    26.7543709879   Al  0.0 0.0    6.47712016e-18  8.51805726e-08  8.51805731e-08
atom      3.8174261132    22.9153106704    26.7293965576   Al  0.0 0.0   -4.18074031e-07  8.69097395e-07  4.18074031e-07
atom      3.8174261132    26.7293965576    22.9153106704   Al  0.0 0.0   -4.18074031e-07  4.18074031e-07  8.69097396e-07
atom      7.6187560240     0.0000000000     0.0000000000   Al  0.0 0.0   -7.52922145e-07  1.76872609e-16  4.84265937e-17
atom      7.6315120004     3.8174261132     3.8174261132   Al  0.0 0.0   -8.69097396e-07 -4.18074031e-07 -4.18074031e-07
atom     11.4489145832     0.0000000000     3.8155426720   Al  0.0 0.0   -5.40470549e-07  1.58194884e-16 -2.14131230e-07
atom     11.4489145832     3.8155426720     0.0000000000   Al  0.0 0.0   -5.40470548e-07 -2.14131230e-07 -7.33790956e-16
atom      7.6290234163     0.0000000000     7.6290234163   Al  0.0 0.0   -4.88945017e-07  2.20626905e-17 -4.88945017e-07
atom      7.6350134484     3.8178449453    11.4531773783   Al  0.0 0.0    6.53754119e-07 -1.75993478e-07  7.38851411e-07
atom     11.4513142723     0.0000000000    11.4513142723   Al  0.0 0.0    1.09492241e-06  2.18745916e-16  1.09492241e-06
atom     11.4531773783     3.8178449453     7.6350134484   Al  0.0 0.0    7.38851411e-07 -1.75993478e-07  6.53754119e-07
atom      7.6342831412     0.0000000000    15.2734113354   Al  0.0 0.0    2.59289522e-07  2.22785945e-16 -3.92591072e-17
atom      7.6350134484     3.8178449453    19.0936452924   Al  0.0 0.0    6.53754119e-07 -1.75993478e-07 -7.38851411e-07
atom     11.4513142723     0.0000000000    19.0955083985   Al  0.0 0.0    1.09492241e-06  8.60789265e-16 -1.09492241e-06
atom     11.4543538753     3.8167819622    15.2734113354   Al  0.0 0.0    1.84617592e-07 -4.05395772e-07  8.27470571e-16
atom      7.6290234163     0.0000000000    22.9177992544   Al  0.0 0.0   -4.88945017e-07  4.73808087e-16  4.88945016e-07
atom      7.6315120004     3.8174261132    26.7293965576   Al  0.0 0.0   -8.69097396e-07 -4.18074031e-07  4.18074031e-07
atom     11.4489145832     0.0000000000    26.7312799988   Al  0.0 0.0   -5.40470547e-07  1.96695612e-16  2.14131231e-07
atom     11.4531773783     3.8178449453    22.9118092224   Al  0.0 0.0    7.38851411e-07 -1.75993477e-07 -6.53754119e-07
atom      7.6290234163     7.6290234163     0.0000000000   Al  0.0 0.0   -4.88945017e-07 -4.88945017e-07 -1.60511134e-16
atom      7.6350134484    11.4531773783     3.8178449453   Al  0.0 0.0    6.53754119e-07  7.38851411e-07 -1.75993478e-07
atom     11.4531773783     7.6350134484     3.8178449453   Al  0.0 0.0    7.38851411e-07  6.53754119e-07 -1.75993478e-07
atom     11.4513142723    11.4513142723     0.0000000000   Al  0.0 0.0    1.09492241e-06  1.09492241e-06 -3.19804645e-16
atom      7.6384879001     7.6384879001     7.6384879001   Al  0.0 0.0   -1.78693616e-07 -1.78693617e-07 -1.78693617e-07
atom      7.6370710558    11.4566699256    11.4566699256   Al  0.0 0.0   -5.94960854e-07 -3.55612774e-07 -3.55612773e-07
atom     11.4566699256     7.6370710558    11.4566699256   Al  0.0 0.0   -3.55612774e-07 -5.94960854e-07 -3.55612773e-07
atom     11.4566699256    11.4566699256     7.6370710558   Al  0.0 0.0   -3.55612773e-07 -3.55612773e-07 -5.94960855e-07
atom      7.6363199755     7.6363199755    15.2734113354   Al  0.0 0.0   -6.59432668e-08 -6.59432670e-08 -2.41567713e-16
atom      7.6370710558    11.4566699256    19.0901527452   Al  0.0 0.0   -5.94960854e-07 -3.55612773e-07  3.55612774e-07
atom     11.4566699256     7.6370710558    19.0901527452   Al  0.0 0.0   -3.55612773e-07 -5.94960854e-07  3.55612773e-07
atom     11.4554529811    11.4554529811    15.2734113354   Al  0.0 0.0    8.32466092e-08  8.32466085e-08  9.18288378e-16
atom      7.6384879001     7.6384879001    22.9083347707   Al  0.0 0.0   -1.78693617e-07 -1.78693617e-07  1.78693616e-07
atom      7.6350134484    11.4531773783    26.7289777255   Al  0.0 0.0    6.53754119e-07  7.38851411e-07  1.75993478e-07
atom     11.4531773783     7.6350134484    26.7289777255   Al  0.0 0.0    7.38851412e-07  6.53754119e-07  1.75993478e-07
atom     11.4566699256    11.4566699256    22.9097516149   Al  0.0 0.0   -3.55612773e-07 -3.55612773e-07  5.94960854e-07
atom      7.6342831412    15.2734113354     0.0000000000   Al  0.0 0.0    2.59289521e-07 -1.91448238e-16 -5.23784118e-16
atom      7.6350134484    19.0936452924     3.8178449453   Al  0.0 0.0    6.53754119e-07 -7.38851411e-07 -1.75993478e-07
atom     11.4543538753    15.2734113354     3.8167819622   Al  0.0 0.0    1.84617591e-07  4.75687999e-16 -4.05395772e-07
atom     11.4513142723    19.0955083985     0.0000000000   Al  0.0 0.0    1.09492241e-06 -1.09492241e-06  6.89341798e-17
atom      7.6363199755    15.2734113354     7.6363199755   Al  0.0 0.0   -6.59432670e-08  2.14361683e-16 -6.59432670e-08
atom      7.6370710558    19.0901527452    11.4566699256   Al  0.0 0.0   -5.94960854e-07  3.55612774e-07 -3.55612773e-07
atom     11.4554529811    15.2734113354    11.4554529811   Al  0.0 0.0    8.32466088e-08  6.37033150e-16  8.32466091e-08
atom     11.4566699256    19.0901527452     7.6370710558   Al  0.0 0.0   -3.55612774e-07  3.55612774e-07 -5.94960854e-07
atom      7.6358121511    15.2734113354    15.2734113354   Al  0.0 0.0   -8.40524626e-07  7.51859343e-16  6.19881191e-16
atom      7.6370710558    19.0901527452    19.0901527452   Al  0.0 0.0   -5.94960854e-07  3.55612773e-07  3.55612773e-07
atom     11.4554529811    15.2734113354    19.0913696896   Al  0.0 0.0    8.32466095e-08  3.96269998e-17 -8.32466085e-08
atom     11.4554529811    19.0913696896    15.2734113354   Al  0.0 0.0    8.32466085e-08 -8.32466091e-08  2.17415466e-16
atom      7.6363199755    15.2734113354    22.9105026952   Al  0.0 0.0   -6.59432666e-08 -7.10079599e-17  6.59432666e-08
atom      7.6350134484    19.0936452924    26.7289777255   Al  0.0 0.0    6.53754119e-07 -7.38851412e-07  1.75993479e-07
atom     11.4543538753    15.2734113354    26.7300407085   Al  0.0 0.0    1.84617592e-07 -1.71972822e-16  4.05395772e-07
atom     11.4566699256    19.0901527452    22.9097516149   Al  0.0 0.0   -3.55612773e-07  3.55612773e-07  5.94960854e-07
atom      7.6290234163    22.9177992544     0.0000000000   Al  0.0 0.0   -4.88945017e-07  4.88945017e-07  6.10139659e-16
atom      7.6315120004    26.7293965576     3.8174261132   Al  0.0 0.0   -8.69097396e-07  4.18074031e-07 -4.18074031e-07
atom     11.4531773783    22.9118092224     3.8178449453   Al  0.0 0.0    7.38851411e-07 -6.53754120e-07 -1.75993478e-07
atom     11.4489145832    26.7312799988     0.0000000000   Al  0.0 0.0   -5.40470548e-07  2.14131231e-07 -1.66305850e-16
atom      7.6384879001    22.9083347707     7.6384879001   Al  0.0 0.0   -1.78693616e-07  1.78693616e-07 -1.78693617e-07
atom      7.6350134484    26.7289777255    11.4531773783   Al  0.0 0.0    6.53754119e-07  1.75993478e-07  7.38851411e-07
atom     11.4566699256    22.9097516149    11.4566699256   Al  0.0 0.0   -3.55612774e-07  5.94960854e-07 -3.55612773e-07
atom     11.4531773783    26.7289777255     7.6350134484   Al  0.0 0.0    7.38851411e-07  1.75993478e-07  6.53754120e-07
atom      7.6363199755    22.9105026952    15.2734113354   Al  0.0 0.0   -6.59432663e-08  6.59432662e-08  3.82827661e-16
atom      7.6350134484    26.7289777255    19.0936452924   Al  0.0 0.0    6.53754119e-07  1.75993478e-07 -7.38851412e-07
atom     11.4566699256    22.9097516149    19.0901527452   Al  0.0 0.0   -3.55612774e-07  5.94960854e-07  3.55612773e-07
atom     11.4543538753    26.7300407085    15.2734113354   Al  0.0 0.0    1.84617592e-07  4.05395772e-07  5.55714791e-17
atom      7.6384879001    22.9083347707    22.9083347707   Al  0.0 0.0   -1.78693617e-07  1.78693617e-07  1.78693616e-07
atom      7.6315120004    26.7293965576    26.7293965576   Al  0.0 0.0   -8.69097396e-07  4.18074031e-07  4.18074031e-07
atom     11.4531773783    22.9118092224    26.7289777255   Al  0.0 0.0    7.38851411e-07 -6.53754119e-07  1.75993478e-07
atom     11.4531773783    26.7289777255    22.9118092224   Al  0.0 0.0    7.38851411e-07  1.75993477e-07 -6.53754119e-07
atom     15.2734113354     0.0000000000     0.0000000000   Al  0.0 0.0   -5.85428771e-17 -3.16426138e-16 -7.25639880e-16
atom     15.2734113354     3.8164202227     3.8164202227   Al  0.0 0.0   -6.39573447e-17  1.86798888e-08  1.86798888e-08
atom     19.0979080876     0.0000000000     3.8155426720   Al  0.0 0.0    5.40470548e-07 -1.39932783e-16 -2.14131230e-07
atom     19.0979080876     3.8155426720     0.0000000000   Al  0.0 0.0    5.40470548e-07 -2.14131230e-07 -3.33672893e-16
atom     15.2734113354     0.0000000000     7.6342831412   Al  0.0 0.0    1.85892505e-16 -4.98836558e-17  2.59289522e-07
atom     15.2734113354     3.8167819622    11.4543538753   Al  0.0 0.0   -4.86787628e-16 -4.05395772e-07  1.84617591e-07
atom     19.0955083985     0.0000000000    11.4513142723   Al  0.0 0.0   -1.09492241e-06 -4.86222567e-16  1.09492241e-06
atom     19.0936452924     3.8178449453     7.6350134484   Al  0.0 0.0   -7.38851412e-07 -1.75993478e-07  6.53754119e-07
atom     15.2734113354     0.0000000000    15.2734113354   Al  0.0 0.0    1.36082776e-16  3.67567872e-17 -1.76199855e-16
atom     15.2734113354     3.8167819622    19.0924687955   Al  0.0 0.0   -8.20932811e-16 -4.05395772e-07 -1.84617592e-07
atom     19.0955083985     0.0000000000    19.0955083985   Al  0.0 0.0   -1.09492241e-06  3.85928409e-17 -1.09492241e-06
atom     19.0924687955     3.8167819622    15.2734113354   Al  0.0 0.0   -1.84617591e-07 -4.05395772e-07  6.92449660e-18
atom     15.2734113354     0.0000000000    22.9125395296   Al  0.0 0.0    6.10940865e-17  1.29296243e-16 -2.59289521e-07
atom     15.2734113354     3.8164202227    26.7304024480   Al  0.0 0.0   -2.69285427e-16  1.86798887e-08 -1.86798885e-08
atom     19.0979080876     0.0000000000    26.7312799988   Al  0.0 0.0    5.40470548e-07 -3.45395806e-16  2.14131230e-07
atom     19.0936452924     3.8178449453    22.9118092224   Al  0.0 0.0   -7.38851412e-07 -1.75993478e-07 -6.53754119e-07
atom     15.2734113354     7.6342831412     0.0000000000   Al  0.0 0.0   -2.92326433e-16  2.59289522e-07 -3.44869619e-16
atom     15.2734113354    11.4543538753     3.8167819622   Al  0.0 0.0   -3.34334943e-16  1.84617591e-07 -4.05395772e-07
atom     19.0936452924     7.6350134484     3.8178449453   Al  0.0 0.0   -7.38851411e-07  6.53754119e-07 -1.75993478e-07
atom     19.0955083985    11.4513142723     0.0000000000   Al  0.0 0.0   -1.09492241e-06  1.09492241e-06 -2.87247207e-16
atom     15.2734113354     7.6363199755     7.6363199755   Al  0.0 0.0    8.06519532e-17 -6.59432669e-08 -6.59432669e-08
atom     15.2734113354    11.4554529811    11.4554529811   Al  0.0 0.0    6.03637237e-16  8.32466086e-08  8.32466094e-08
atom     19.0901527452     7.6370710558    11.4566699256   Al  0.0 0.0    3.55612773e-07 -5.94960854e-07 -3.55612773e-07
atom     19.0901527452    11.4566699256     7.6370710558   Al  0.0 0.0    3.55612774e-07 -3.55612773e-07 -5.94960854e-07
atom     15.2734113354     7.6358121511    15.2734113354   Al  0.0 0.0   -3.36207235e-16 -8.40524626e-07  2.90214839e-16
atom     15.2734113354    11.4554529811    19.0913696896   Al  0.0 0.0   -7.41571222e-16  8.32466095e-08 -8.32466091e-08
atom     19.0901527452     7.6370710558    19.0901527452   Al  0.0 0.0    3.55612773e-07 -5.94960854e-07  3.55612774e-07
atom     19.0913696896    11.4554529811    15.2734113354   Al  0.0 0.0   -8.32466090e-08  8.32466089e-08 -1.46698477e-16
atom     15.2734113354     7.6363199755    22.9105026952   Al  0.0 0.0   -9.08019716e-17 -6.59432669e-08  6.59432665e-08
atom     15.2734113354    11.4543538753    26.7300407085   Al  0.0 0.0   -1.70479827e-16  1.84617592e-07  4.05395773e-07
atom     19.0936452924     7.6350134484    26.7289777255   Al  0.0 0.0   -7.38851412e-07  6.53754119e-07  1.75993478e-07
atom     19.0901527452    11.4566699256    22.9097516149   Al  0.0 0.0    3.55612773e-07 -3.55612772e-07  5.94960854e-07
atom     15.2734113354    15.2734113354     0.0000000000   Al  0.0 0.0    6.26020410e-16 -1.20248563e-16 -7.22325536e-16
atom     15.2734113354    19.0924687955     3.8167819622   Al  0.0 0.0    2.28170895e-16 -1.84617591e-07 -4.05395772e-07
atom     19.0924687955    15.2734113354     3.8167819622   Al  0.0 0.0   -1.84617591e-07  9.37655914e-16 -4.05395772e-07
atom     19.0955083985    19.0955083985     0.0000000000   Al  0.0 0.0   -1.09492241e-06 -1.09492241e-06  2.58114925e-17
atom     15.2734113354    15.2734113354     7.6358121511   Al  0.0 0.0    7.76314056e-16  1.33982209e-16 -8.40524626e-07
atom     15.2734113354    19.0913696896    11.4554529811   Al  0.0 0.0   -2.52417927e-16 -8.32466092e-08  8.32466093e-08
atom     19.0913696896    15.2734113354    11.4554529811   Al  0.0 0.0   -8.32466090e-08  7.04913927e-17  8.32466090e-08
atom     19.0901527452    19.0901527452     7.6370710558   Al  0.0 0.0    3.55612773e-07  3.55612773e-07 -5.94960855e-07
atom     15.2734113354    15.2734113354    15.2734113354   Al  0.0 0.0    3.42060258e-16  6.36388761e-16  1.39455070e-15
atom     15.2734113354    19.0913696896    19.0913696896   Al  0.0 0.0    2.36039584e-16 -8.32466096e-08 -8.32466090e-08
atom     19.0913696896    15.2734113354    19.0913696896   Al  0.0 0.0   -8.32466090e-08  4.09028451e-16 -8.32466091e-08
atom     19.0913696896    19.0913696896    15.2734113354   Al  0.0 0.0   -8.32466092e-08 -8.32466090e-08  7.51953867e-16
atom     15.2734113354    15.2734113354    22.9110105196   Al  0.0 0.0   -3.06258988e-16  5.18326554e-17  8.40524626e-07
atom     15.2734113354    19.0924687955    26.7300407085   Al  0.0 0.0    4.45749000e-16 -1.84617592e-07  4.05395772e-07
atom     19.0924687955    15.2734113354    26.7300407085   Al  0.0 0.0   -1.84617592e-07  5.35585307e-17  4.05395773e-07
atom     19.0901527452    19.0901527452    22.9097516149   Al  0.0 0.0    3.55612772e-07  3.55612773e-07  5.94960854e-07
atom     15.2734113354    22.9125395296     0.0000000000   Al  0.0 0.0    2.23899201e-16 -2.59289522e-07 -1.49093945e-16
atom     15.2734113354    26.7304024480     3.8164202227   Al  0.0 0.0    2.83378224e-16 -1.86798886e-08  1.86798884e-08
atom     19.0936452924    22.9118092224     3.8178449453   Al  0.0 0.0   -7.38851412e-07 -6.53754120e-07 -1.75993478e-07
atom     19.0979080876    26.7312799988     0.0000000000   Al  0.0 0.0    5.40470547e-07  2.14131230e-07 -3.19133108e-16
atom     15.2734113354    22.9105026952     7.6363199755   Al  0.0 0.0   -1.58280407e-16  6.59432668e-08 -6.59432673e-08
atom     15.2734113354    26.7300407085    11.4543538753   Al  0.0 0.0   -1.52878590e-16  4.05395772e-07  1.84617591e-07
atom     19.0901527452    22.9097516149    11.4566699256   Al  0.0 0.0    3.55612773e-07  5.94960854e-07 -3.55612773e-07
atom     19.0936452924    26.7289777255     7.6350134484   Al  0.0 0.0   -7.38851411e-07  1.75993478e-07  6.53754120e-07
atom     15.2734113354    22.9110105196    15.2734113354   Al  0.0 0.0   -8.38441277e-17  8.40524626e-07  3.20686840e-17
atom     15.2734113354    26.7300407085    19.0924687955   Al  0.0 0.0   -5.96898671e-17  4.05395772e-07 -1.84617592e-07
atom     19.0901527452    22.9097516149    19.0901527452   Al  0.0 0.0    3.55612773e-07  5.94960854e-07  3.55612773e-07
atom     19.0924687955    26.7300407085    15.2734113354   Al  0.0 0.0   -1.84617591e-07  4.05395772e-07  4.94470775e-17
atom     15.2734113354    22.9105026952    22.9105026952   Al  0.0 0.0   -6.88194017e-18  6.59432661e-08  6.59432664e-08
atom     15.2734113354    26.7304024480    26.7304024480   Al  0.0 0.0    3.92641675e-16 -1.86798879e-08 -1.86798886e-08
atom     19.0936452924    22.9118092224    26.7289777255   Al  0.0 0.0   -7.38851411e-07 -6.53754119e-07  1.75993478e-07
atom     19.0936452924    26.7289777255    22.9118092224   Al  0.0 0.0   -7.38851411e-07  1.75993478e-07 -6.53754119e-07
atom     22.9280666468     0.0000000000     0.0000000000   Al  0.0 0.0    7.52922145e-07  1.84328045e-16 -7.48917018e-17
atom     22.9153106704     3.8174261132     3.8174261132   Al  0.0 0.0    8.69097396e-07 -4.18074031e-07 -4.18074031e-07
atom     26.7543709879     0.0000000000     3.7924516829   Al  0.0 0.0    8.51805728e-08  5.17899733e-16 -8.51805724e-08
atom     26.7543709879     3.7924516829     0.0000000000   Al  0.0 0.0    8.51805724e-08 -8.51805727e-08  5.40164833e-16
atom     22.9177992544     0.0000000000     7.6290234163   Al  0.0 0.0    4.88945017e-07  1.88916005e-18 -4.88945017e-07
atom     22.9118092224     3.8178449453    11.4531773783   Al  0.0 0.0   -6.53754119e-07 -1.75993477e-07  7.38851411e-07
atom     26.7312799988     0.0000000000    11.4489145832   Al  0.0 0.0    2.14131230e-07  1.81899124e-16 -5.40470548e-07
atom     26.7293965576     3.8174261132     7.6315120004   Al  0.0 0.0    4.18074031e-07 -4.18074031e-07 -8.69097396e-07
atom     22.9125395296     0.0000000000    15.2734113354   Al  0.0 0.0   -2.59289522e-07  8.51471421e-17  2.84204731e-16
atom     22.9118092224     3.8178449453    19.0936452924   Al  0.0 0.0   -6.53754118e-07 -1.75993478e-07 -7.38851411e-07
atom     26.7312799988     0.0000000000    19.0979080876   Al  0.0 0.0    2.14131230e-07  5.52174494e-16  5.40470548e-07
atom     26.7304024480     3.8164202227    15.2734113354   Al  0.0 0.0   -1.86798885e-08  1.86798893e-08  2.59538120e-17
atom     22.9177992544     0.0000000000    22.9177992544   Al  0.0 0.0    4.88945017e-07  1.04308623e-16  4.88945017e-07
atom     22.9153106704     3.8174261132    26.7293965576   Al  0.0 0.0    8.69097396e-07 -4.18074031e-07  4.18074031e-07
atom     26.7543709879     0.0000000000    26.7543709879   Al  0.0 0.0    8.51805730e-08  3.04424647e-16  8.51805729e-08
atom     26.7293965576     3.8174261132    22.9153106704   Al  0.0 0.0    4.18074031e-07 -4.18074031e-07  8.69097395e-07
atom     22.9177992544     7.6290234163     0.0000000000   Al  0.0 0.0    4.88945017e-07 -4.88945018e-07  6.13808340e-17
atom     22.9118092224    11.4531773783     3.8178449453   Al  0.0 0.0   -6.53754120e-07  7.38851412e-07 -1.75993478e-07
atom     26.7293965576     7.6315120004     3.8174261132   Al  0.0 0.0    4.18074031e-07 -8.69097396e-07 -4.18074030e-07
atom     26.7312799988    11.4489145832     0.0000000000   Al  0.0 0.0    2.14131230e-07 -5.40470548e-07 -2.34998701e-16
atom     22.9083347707     7.6384879001     7.6384879001   Al  0.0 0.0    1.78693616e-07 -1.78693616e-07 -1.78693616e-07
atom     22.9097516149    11.4566699256    11.4566699256   Al  0.0 0.0    5.94960853e-07 -3.55612774e-07 -3.55612773e-07
atom     26.7289777255     7.6350134484    11.4531773783   Al  0.0 0.0    1.75993477e-07  6.53754119e-07  7.38851411e-07
atom     26.7289777255    11.4531773783     7.6350134484   Al  0.0 0.0    1.75993478e-07  7.38851411e-07  6.53754119e-07
atom     22.9105026952     7.6363199755    15.2734113354   Al  0.0 0.0    6.59432668e-08 -6.59432671e-08 -1.76527956e-16
atom     22.9097516149    11.4566699256    19.0901527452   Al  0.0 0.0    5.94960854e-07 -3.55612773e-07  3.55612773e-07
atom     26.7289777255     7.6350134484    19.0936452924   Al  0.0 0.0    1.75993478e-07  6.53754119e-07 -7.38851412e-07
atom     26.7300407085    11.4543538753    15.2734113354   Al  0.0 0.0    4.05395772e-07  1.84617591e-07  4.50100190e-16
atom     22.9083347707     7.6384879001    22.9083347707   Al  0.0 0.0    1.78693617e-07 -1.78693617e-07  1.78693616e-07
atom     22.9118092224    11.4531773783    26.7289777255   Al  0.0 0.0   -6.53754120e-07  7.38851412e-07  1.75993478e-07
atom     26.7293965576     7.6315120004    26.7293965576   Al  0.0 0.0    4.18074031e-07 -8.69097396e-07  4.18074031e-07
atom     26.7289777255    11.4531773783    22.9118092224   Al  0.0 0.0    1.75993478e-07  7.38851411e-07 -6.53754120e-07
atom     22.9125395296    15.2734113354     0.0000000000   Al  0.0 0.0   -2.59289522e-07  2.02502776e-16 -3.33632438e-16
atom     22.9118092224    19.0936452924     3.8178449453   Al  0.0 0.0   -6.53754120e-07 -7.38851412e-07 -1.75993478e-07
atom     26.7304024480    15.2734113354     3.8164202227   Al  0.0 0.0   -1.86798886e-08 -1.49592590e-16  1.86798886e-08
atom     26.7312799988    19.0979080876     0.0000000000   Al  0.0 0.0    2.14131230e-07  5.40470548e-07 -5.72229952e-17
atom     22.9105026952    15.2734113354     7.6363199755   Al  0.0 0.0    6.59432665e-08 -1.48682799e-16 -6.59432673e-08
atom     22.9097516149    19.0901527452    11.4566699256   Al  0.0 0.0    5.94960854e-07  3.55612773e-07 -3.55612773e-07
atom     26.7300407085    15.2734113354    11.4543538753   Al  0.0 0.0    4.05395772e-07  2.87446454e-16  1.84617591e-07
atom     26.7289777255    19.0936452924     7.6350134484   Al  0.0 0.0    1.75993478e-07 -7.38851412e-07  6.53754119e-07
atom     22.9110105196    15.2734113354    15.2734113354   Al  0.0 0.0    8.40524626e-07  4.53111664e-16 -4.17661418e-17
atom     22.9097516149    19.0901527452    19.0901527452   Al  0.0 0.0    5.94960854e-07  3.55612773e-07  3.55612773e-07
atom     26.7300407085    15.2734113354    19.0924687955   Al  0.0 0.0    4.05395772e-07  9.51871000e-16 -1.84617591e-07
atom     26.7300407085    19.0924687955    15.2734113354   Al  0.0 0.0    4.05395772e-07 -1.84617591e-07  2.92095559e-16
atom     22.9105026952    15.2734113354    22.9105026952   Al  0.0 0.0    6.59432660e-08 -9.48712561e-17  6.59432662e-08
atom     22.9118092224    19.0936452924    26.7289777255   Al  0.0 0.0   -6.53754119e-07 -7.38851412e-07  1.75993478e-07
atom     26.7304024480    15.2734113354    26.7304024480   Al  0.0 0.0   -1.86798888e-08  1.83560573e-16 -1.86798880e-08
atom     26.7289777255    19.0936452924    22.9118092224   Al  0.0 0.0    1.75993478e-07 -7.38851412e-07 -6.53754119e-07
atom     22.9177992544    22.9177992544     0.0000000000   Al  0.0 0.0    4.88945018e-07  4.88945017e-07 -9.30242648e-18
atom     22.9153106704    26.7293965576     3.8174261132   Al  0.0 0.0    8.69097396e-07  4.18074031e-07 -4.18074031e-07
atom     26.7293965576    22.9153106704     3.8174261132   Al  0.0 0.0    4.18074031e-07  8.69097396e-07 -4.18074031e-07
atom     26.7543709879    26.7543709879     0.0000000000   Al  0.0 0.0    8.51805724e-08  8.51805724e-08  1.57609924e-16
atom     22.9083347707    22.9083347707     7.6384879001   Al  0.0 0.0    1.78693616e-07  1.78693616e-07 -1.78693617e-07
atom     22.9118092224    26.7289777255    11.4531773783   Al  0.0 0.0   -6.53754120e-07  1.75993478e-07  7.38851411e-07