begin
comment 256 atoms, species Al255Mg
lattice     30.5468226708     0.0000000000     0.0000000000
lattice      0.0000000000    30.5468226708     0.0000000000
lattice      0.0000000000     0.0000000000    30.5468226708
atom      0.0000000000     0.0000000000     0.0000000000   Mg  0.0 0.0    1.51132804e-15  9.62931864e-16  1.58689444e-15
atom      0.0000000000     3.8641139446     3.8641139446   Al  0.0 0.0    5.58111854e-16 -4.94929192e-07 -4.94929192e-07
atom      3.8641139446     0.0000000000     3.8641139446   Al  0.0 0.0   -4.94929192e-07  5.93736015e-18 -4.94929192e-07
atom      3.8641139446     3.8641139446     0.0000000000   Al  0.0 0.0   -4.94929192e-07 -4.94929192e-07  2.76382428e-16
atom      0.0000000000     0.0000000000     7.6339058343   Al  0.0 0.0   -4.42603211e-17 -5.85099854e-16  1.27634914e-06
atom      0.0000000000     3.8191340730    11.4622741855   Al  0.0 0.0    3.69195849e-16 -6.45932678e-09  2.90422781e-08
atom      3.8191340730     0.0000000000    11.4622741855   Al  0.0 0.0   -6.45932623e-09 -1.91479865e-16  2.90422777e-08
atom      3.8267751426     3.8267751426     7.6530118191   Al  0.0 0.0   -4.43541685e-07 -4.43541686e-07  9.63349131e-07
atom      0.0000000000     0.0000000000    15.2734113354   Al  0.0 0.0    3.24935528e-16 -2.13475085e-16  1.02497527e-15
atom      0.0000000000     3.8191340730    19.0845484853   Al  0.0 0.0    2.91470407e-17 -6.45932723e-09 -2.90422781e-08
atom      3.8191340730     0.0000000000    19.0845484853   Al  0.0 0.0   -6.45932711e-09  8.63616021e-17 -2.90422790e-08
atom      3.8201790832     3.8201790832    15.2734113354   Al  0.0 0.0    7.70381023e-07  7.70381023e-07  7.23019080e-16
atom      0.0000000000     0.0000000000    22.9129168365   Al  0.0 0.0   -5.85099854e-16  1.95932885e-16 -1.27634914e-06
atom      0.0000000000     3.8641139446    26.6827087261   Al  0.0 0.0    2.90390887e-16 -4.94929191e-07  4.94929190e-07
atom      3.8641139446     0.0000000000    26.6827087261   Al  0.0 0.0   -4.94929191e-07  1.20771303e-16  4.94929191e-07
atom      3.8267751426     3.8267751426    22.8938108517   Al  0.0 0.0   -4.43541686e-07 -4.43541686e-07 -9.63349131e-07
atom      0.0000000000     7.6339058343     0.0000000000   Al  0.0 0.0    3.77832009e-17  1.27634914e-06 -2.05142540e-16
atom      0.0000000000    11.4622741855     3.8191340730   Al  0.0 0.0    4.85784012e-17  2.90422775e-08 -6.45932668e-09
atom      3.8267751426     7.6530118191     3.8267751426   Al  0.0 0.0   -4.43541685e-07  9.63349132e-07 -4.43541685e-07
atom      3.8191340730    11.4622741855     0.0000000000   Al  0.0 0.0   -6.45932676e-09  2.90422772e-08  2.34996566e-16
atom      0.0000000000     7.6499183137     7.6499183137   Al  0.0 0.0    4.25330890e-16 -3.80117198e-07 -3.80117198e-07
atom      0.0000000000    11.4571696870    11.4571696870   Al  0.0 0.0    2.68800487e-16  6.27777216e-08  6.27777220e-08
atom      3.8206019774     7.6408392488    11.4598538804   Al  0.0 0.0    7.76283743e-08 -1.43773075e-08 -6.20175930e-08
atom      3.8206019774    11.4598538804     7.6408392488   Al  0.0 0.0    7.76283744e-08 -6.20175936e-08 -1.43773082e-08
atom      0.0000000000     7.6378573527    15.2734113354   Al  0.0 0.0    4.84704492e-16  8.53026671e-07 -1.45358320e-16
atom      0.0000000000    11.4571696870    19.0896529838   Al  0.0 0.0    7.78333939e-16  6.27777217e-08 -6.27777223e-08
atom      3.8206019774     7.6408392488    19.0869687903   Al  0.0 0.0    7.76283742e-08 -1.43773079e-08  6.20175924e-08
atom      3.8189845259    11.4569182700    15.2734113354   Al  0.0 0.0   -9.34259815e-07  1.90395879e-07  3.42278367e-16
atom      0.0000000000     7.6499183137    22.8969043571   Al  0.0 0.0    1.04713443e-16 -3.80117199e-07  3.80117199e-07
atom      0.0000000000    11.4622741855    26.7276885978   Al  0.0 0.0   -2.67720967e-16  2.90422772e-08  6.45932659e-09
atom      3.8267751426     7.6530118191    26.7200475282   Al  0.0 0.0   -4.43541686e-07  9.63349131e-07  4.43541685e-07
atom      3.8206019774    11.4598538804    22.9059834220   Al  0.0 0.0    7.76283745e-08 -6.20175935e-08  1.43773078e-08
atom      0.0000000000    15.2734113354     0.0000000000   Al  0.0 0.0    9.06796822e-17  9.49025137e-16  4.88569369e-16
atom      0.0000000000    19.0845484853     3.8191340730   Al  0.0 0.0    6.43393936e-16 -2.90422784e-08 -6.45932726e-09
atom      3.8201790832    15.2734113354     3.8201790832   Al  0.0 0.0    7.70381023e-07  1.24840587e-15  7.70381023e-07
atom      3.8191340730    19.0845484853     0.0000000000   Al  0.0 0.0   -6.45932697e-09 -2.90422772e-08  3.62288608e-16
atom      0.0000000000    15.2734113354     7.6378573527   Al  0.0 0.0   -4.96579212e-17  3.12393487e-16  8.53026671e-07
atom      0.0000000000    19.0896529838    11.4571696870   Al  0.0 0.0    6.01292655e-16 -6.27777217e-08  6.27777216e-08
atom      3.8189845259    15.2734113354    11.4569182700   Al  0.0 0.0   -9.34259815e-07 -2.14470268e-17  1.90395880e-07
atom      3.8206019774    19.0869687903     7.6408392488   Al  0.0 0.0    7.76283744e-08  6.20175927e-08 -1.43773085e-08
atom      0.0000000000    15.2734113354    15.2734113354   Al  0.0 0.0    1.07628147e-15 -1.63696983e-16 -1.83814979e-16
atom      0.0000000000    19.0896529838    19.0896529838   Al  0.0 0.0    3.74593449e-16 -6.27777225e-08 -6.27777232e-08
atom      3.8189845259    15.2734113354    19.0899044007   Al  0.0 0.0   -9.34259816e-07  7.11935024e-17 -1.90395879e-07
atom      3.8189845259    19.0899044007    15.2734113354   Al  0.0 0.0   -9.34259816e-07 -1.90395879e-07  1.85856125e-16
atom      0.0000000000    15.2734113354    22.9089653180   Al  0.0 0.0    1.29542403e-16  2.03197506e-16 -8.53026670e-07
atom      0.0000000000    19.0845484853    26.7276885978   Al  0.0 0.0   -2.43971526e-16 -2.90422772e-08  6.45932719e-09
atom      3.8201790832    15.2734113354    26.7266435875   Al  0.0 0.0    7.70381023e-07  3.55676548e-16 -7.70381024e-07
atom      3.8206019774    19.0869687903    22.9059834220   Al  0.0 0.0    7.76283746e-08  6.20175923e-08  1.43773083e-08
atom      0.0000000000    22.9129168365     0.0000000000   Al  0.0 0.0    1.72723204e-17 -1.27634914e-06 -3.56983779e-16
atom      0.0000000000    26.6827087261     3.8641139446   Al  0.0 0.0    1.37099043e-16  4.94929191e-07 -4.94929191e-07
atom      3.8267751426    22.8938108517     3.8267751426   Al  0.0 0.0   -4.43541685e-07 -9.63349131e-07 -4.43541686e-07
atom      3.8641139446    26.6827087261     0.0000000000   Al  0.0 0.0   -4.94929191e-07  4.94929191e-07  4.41759836e-16
atom      0.0000000000    22.8969043571     7.6499183137   Al  0.0 0.0   -5.39760013e-18  3.80117199e-07 -3.80117198e-07
atom      0.0000000000    26.7276885978    11.4622741855   Al  0.0 0.0   -3.34651208e-17  6.45932616e-09  2.90422778e-08
atom      3.8206019774    22.9059834220    11.4598538804   Al  0.0 0.0    7.76283743e-08  1.43773086e-08 -6.20175931e-08
atom      3.8267751426    26.7200475282     7.6530118191   Al  0.0 0.0   -4.43541686e-07  4.43541685e-07  9.63349132e-07
atom      0.0000000000    22.9089653180    15.2734113354   Al  0.0 0.0    5.89417935e-16 -8.53026670e-07  9.12215507e-18
atom      0.0000000000    26.7276885978    19.0845484853   Al  0.0 0.0    1.83518405e-16  6.45932724e-09 -2.90422783e-08
atom      3.8206019774    22.9059834220    19.0869687903   Al  0.0 0.0    7.76283749e-08  1.43773089e-08  6.20175920e-08
atom      3.8201790832    26.7266435875    15.2734113354   Al  0.0 0.0    7.70381023e-07 -7.70381023e-07  3.41649640e-16
atom      0.0000000000    22.8969043571    22.8969043571   Al  0.0 0.0    1.98631685e-16  3.80117200e-07  3.80117200e-07
atom      0.0000000000    26.6827087261    26.6827087261   Al  0.0 0.0    3.13060808e-17  4.94929190e-07  4.94929190e-07
atom      3.8267751426    22.8938108517    26.7200475282   Al  0.0 0.0   -4.43541686e-07 -9.63349131e-07  4.43541686e-07
atom      3.8267751426    26.7200475282    22.8938108517   Al  0.0 0.0   -4.43541686e-07  4.43541685e-07 -9.63349131e-07
atom      7.6339058343     0.0000000000     0.0000000000   Al  0.0 0.0    1.27634914e-06 -3.22000583e-16  1.39924350e-16
atom      7.6530118191     3.8267751426     3.8267751426   Al  0.0 0.0    9.63349132e-07 -4.43541686e-07 -4.43541685e-07
atom     11.4622741855     0.0000000000     3.8191340730   Al  0.0 0.0    2.90422779e-08 -1.39905901e-16 -6.45932706e-09
atom     11.4622741855     3.8191340730     0.0000000000   Al  0.0 0.0    2.90422775e-08 -6.45932749e-09  2.50074794e-16
atom      7.6499183137     0.0000000000     7.6499183137   Al  0.0 0.0   -3.80117198e-07  1.49429186e-16 -3.80117198e-07
atom      7.6408392488     3.8206019774    11.4598538804   Al  0.0 0.0   -1.43773080e-08  7.76283741e-08 -6.20175929e-08
atom     11.4571696870     0.0000000000    11.4571696870   Al  0.0 0.0    6.27777215e-08 -5.98088620e-17  6.27777216e-08
atom     11.4598538804     3.8206019774     7.6408392488   Al  0.0 0.0   -6.20175933e-08  7.76283745e-08 -1.43773082e-08
atom      7.6378573527     0.0000000000    15.2734113354   Al  0.0 0.0    8.53026670e-07  2.07369050e-16 -9.61342102e-18
atom      7.6408392488     3.8206019774    19.0869687903   Al  0.0 0.0   -1.43773080e-08  7.76283743e-08  6.20175925e-08
atom     11.4571696870     0.0000000000    19.0896529838   Al  0.0 0.0    6.27777219e-08  4.25768391e-16 -6.27777220e-08
atom     11.4569182700     3.8189845259    15.2734113354   Al  0.0 0.0    1.90395879e-07 -9.34259815e-07 -1.10644666e-16
atom      7.6499183137     0.0000000000    22.8969043571   Al  0.0 0.0   -3.80117198e-07  2.55424559e-16  3.80117200e-07
atom      7.6530118191     3.8267751426    26.7200475282   Al  0.0 0.0    9.63349132e-07 -4.43541686e-07  4.43541685e-07
atom     11.4622741855     0.0000000000    26.7276885978   Al  0.0 0.0    2.90422776e-08 -4.60422144e-17  6.45932625e-09
atom     11.4598538804     3.8206019774    22.9059834220   Al  0.0 0.0   -6.20175932e-08  7.76283740e-08  1.43773086e-08
atom      7.6499183137     7.6499183137     0.0000000000   Al  0.0 0.0   -3.80117199e-07 -3.80117199e-07  3.52800639e-16
atom      7.6408392488    11.4598538804     3.8206019774   Al  0.0 0.0   -1.43773082e-08 -6.20175928e-08  7.76283743e-08
atom     11.4598538804     7.6408392488     3.8206019774   Al  0.0 0.0   -6.20175931e-08 -1.43773080e-08  7.76283747e-08
atom     11.4571696870    11.4571696870     0.0000000000   Al  0.0 0.0    6.27777217e-08  6.27777223e-08  8.46708461e-16
atom      7.6418054927     7.6418054927     7.6418054927   Al  0.0 0.0    4.71196281e-07  4.71196281e-07  4.71196281e-07
atom      7.6387599964    11.4568662789    11.4568662789   Al  0.0 0.0   -1.01847128e-07  1.91192462e-07  1.91192462e-07
atom     11.4568662789     7.6387599964    11.4568662789   Al  0.0 0.0    1.91192462e-07 -1.01847128e-07  1.91192462e-07
atom     11.4568662789    11.4568662789     7.6387599964   Al  0.0 0.0    1.91192462e-07  1.91192462e-07 -1.01847128e-07
atom      7.6394809406     7.6394809406    15.2734113354   Al  0.0 0.0    4.85782567e-08  4.85782573e-08  2.00113328e-16
atom      7.6387599964    11.4568662789    19.0899563919   Al  0.0 0.0   -1.01847128e-07  1.91192462e-07 -1.91192462e-07
atom     11.4568662789     7.6387599964    19.0899563919   Al  0.0 0.0    1.91192462e-07 -1.01847128e-07 -1.91192462e-07
atom     11.4566619552    11.4566619552    15.2734113354   Al  0.0 0.0   -1.22720473e-08 -1.22720474e-08 -9.71164448e-16
atom      7.6418054927     7.6418054927    22.9050171781   Al  0.0 0.0    4.71196281e-07  4.71196281e-07 -4.71196281e-07
atom      7.6408392488    11.4598538804    26.7262206933   Al  0.0 0.0   -1.43773080e-08 -6.20175936e-08 -7.76283747e-08
atom     11.4598538804     7.6408392488    26.7262206933   Al  0.0 0.0   -6.20175935e-08 -1.43773082e-08 -7.76283752e-08
atom     11.4568662789    11.4568662789    22.9080626744   Al  0.0 0.0    1.91192462e-07  1.91192462e-07  1.01847128e-07
atom      7.6378573527    15.2734113354     0.0000000000   Al  0.0 0.0    8.53026670e-07 -1.66256626e-16  9.06839782e-16
atom      7.6408392488    19.0869687903     3.8206019774   Al  0.0 0.0   -1.43773086e-08  6.20175926e-08  7.76283743e-08
atom     11.4569182700    15.2734113354     3.8189845259   Al  0.0 0.0    1.90395879e-07 -8.31016262e-18 -9.34259815e-07
atom     11.4571696870    19.0896529838     0.0000000000   Al  0.0 0.0    6.27777218e-08 -6.27777217e-08  3.38942669e-16
atom      7.6394809406    15.2734113354     7.6394809406   Al  0.0 0.0    4.85782574e-08 -1.79047463e-16  4.85782575e-08
atom      7.6387599964    19.0899563919    11.4568662789   Al  0.0 0.0   -1.01847128e-07 -1.91192462e-07  1.91192461e-07
atom     11.4566619552    15.2734113354    11.4566619552   Al  0.0 0.0   -1.22720474e-08 -3.74337098e-16 -1.22720476e-08
atom     11.4568662789    19.0899563919     7.6387599964   Al  0.0 0.0    1.91192462e-07 -1.91192462e-07 -1.01847128e-07
atom      7.6375645457    15.2734113354    15.2734113354   Al  0.0 0.0   -4.26438062e-07 -2.37937178e-16  2.91411508e-16
atom      7.6387599964    19.0899563919    19.0899563919   Al  0.0 0.0   -1.01847128e-07 -1.91192462e-07 -1.91192461e-07
atom     11.4566619552    15.2734113354    19.0901607155   Al  0.0 0.0   -1.22720479e-08  7.75993357e-17  1.22720472e-08
atom     11.4566619552    19.0901607155    15.2734113354   Al  0.0 0.0   -1.22720473e-08  1.22720468e-08  1.45617957e-16
atom      7.6394809406    15.2734113354    22.9073417301   Al  0.0 0.0    4.85782570e-08  2.75516914e-16 -4.85782575e-08
atom      7.6408392488    19.0869687903    26.7262206933   Al  0.0 0.0   -1.43773082e-08  6.20175934e-08 -7.76283742e-08
atom     11.4569182700    15.2734113354    26.7278381448   Al  0.0 0.0    1.90395879e-07 -1.57830767e-17  9.34259814e-07
atom     11.4568662789    19.0899563919    22.9080626744   Al  0.0 0.0    1.91192462e-07 -1.91192461e-07  1.01847128e-07
atom      7.6499183137    22.8969043571     0.0000000000   Al  0.0 0.0   -3.80117199e-07  3.80117200e-07  3.60711496e-16
atom      7.6530118191    26.7200475282     3.8267751426   Al  0.0 0.0    9.63349131e-07  4.43541685e-07 -4.43541686e-07
atom     11.4598538804    22.9059834220     3.8206019774   Al  0.0 0.0   -6.20175930e-08  1.43773091e-08  7.76283741e-08
atom     11.4622741855    26.7276885978     0.0000000000   Al  0.0 0.0    2.90422776e-08  6.45932617e-09  2.41324217e-16
atom      7.6418054927    22.9050171781     7.6418054927   Al  0.0 0.0    4.71196281e-07 -4.71196281e-07  4.71196281e-07
atom      7.6408392488    26.7262206933    11.4598538804   Al  0.0 0.0   -1.43773084e-08 -7.76283741e-08 -6.20175933e-08
atom     11.4568662789    22.9080626744    11.4568662789   Al  0.0 0.0    1.91192462e-07  1.01847128e-07  1.91192461e-07
atom     11.4598538804    26.7262206933     7.6408392488   Al  0.0 0.0   -6.20175932e-08 -7.76283743e-08 -1.43773084e-08
atom      7.6394809406    22.9073417301    15.2734113354   Al  0.0 0.0    4.85782564e-08 -4.85782569e-08  4.32679353e-16
atom      7.6408392488    26.7262206933    19.0869687903   Al  0.0 0.0   -1.43773083e-08 -7.76283752e-08  6.20175922e-08
atom     11.4568662789    22.9080626744    19.0899563919   Al  0.0 0.0    1.91192461e-07  1.01847128e-07 -1.91192461e-07
atom     11.4569182700    26.7278381448    15.2734113354   Al  0.0 0.0    1.90395879e-07  9.34259815e-07  3.22325957e-17
atom      7.6418054927    22.9050171781    22.9050171781   Al  0.0 0.0    4.71196281e-07 -4.71196281e-07 -4.71196281e-07
atom      7.6530118191    26.7200475282    26.7200475282   Al  0.0 0.0    9.63349132e-07  4.43541685e-07  4.43541686e-07
atom     11.4598538804    22.9059834220    26.7262206933   Al  0.0 0.0   -6.20175934e-08  1.43773089e-08 -7.76283751e-08
atom     11.4598538804    26.7262206933    22.9059834220   Al  0.0 0.0   -6.20175928e-08 -7.76283743e-08  1.43773090e-08
atom     15.2734113354     0.0000000000     0.0000000000   Al  0.0 0.0    4.24238720e-17  1.73645514e-16  4.19604724e-16
atom     15.2734113354     3.8201790832     3.8201790832   Al  0.0 0.0    1.08738872e-15  7.70381023e-07  7.70381023e-07
atom     19.0845484853     0.0000000000     3.8191340730   Al  0.0 0.0   -2.90422777e-08 -2.06238928e-16 -6.45932710e-09
atom     19.0845484853     3.8191340730     0.0000000000   Al  0.0 0.0   -2.90422778e-08 -6.45932728e-09  6.30321623e-16
atom     15.2734113354     0.0000000000     7.6378573527   Al  0.0 0.0    5.87199858e-16 -2.32138843e-16  8.53026670e-07
atom     15.2734113354     3.8189845259    11.4569182700   Al  0.0 0.0    1.53937026e-16 -9.34259815e-07  1.90395880e-07
atom     19.0896529838     0.0000000000    11.4571696870   Al  0.0 0.0   -6.27777224e-08  2.20171483e-16  6.27777222e-08
atom     19.0869687903     3.8206019774     7.6408392488   Al  0.0 0.0    6.20175924e-08  7.76283747e-08 -1.43773085e-08
atom     15.2734113354     0.0000000000    15.2734113354   Al  0.0 0.0    1.02489041e-15  5.17840169e-16  3.59827376e-16
atom     15.2734113354     3.8189845259    19.0899044007   Al  0.0 0.0    5.59499206e-16 -9.34259815e-07 -1.90395879e-07
atom     19.0896529838     0.0000000000    19.0896529838   Al  0.0 0.0   -6.27777228e-08  6.81447017e-18 -6.27777230e-08
atom     19.0899044007     3.8189845259    15.2734113354   Al  0.0 0.0   -1.90395879e-07 -9.34259816e-07  1.35998600e-16
atom     15.2734113354     0.0000000000    22.9089653180   Al  0.0 0.0    2.43026946e-16  1.63870139e-16 -8.53026671e-07
atom     15.2734113354     3.8201790832    26.7266435875   Al  0.0 0.0    3.29295777e-17  7.70381023e-07 -7.70381024e-07
atom     19.0845484853     0.0000000000    26.7276885978   Al  0.0 0.0   -2.90422769e-08  2.65393252e-16  6.45932696e-09
atom     19.0869687903     3.8206019774    22.9059834220   Al  0.0 0.0    6.20175924e-08  7.76283748e-08  1.43773083e-08
atom     15.2734113354     7.6378573527     0.0000000000   Al  0.0 0.0    6.11455324e-16  8.53026670e-07  8.74923045e-16
atom     15.2734113354    11.4569182700     3.8189845259   Al  0.0 0.0    3.28878306e-16  1.90395879e-07 -9.34259815e-07
atom     19.0869687903     7.6408392488     3.8206019774   Al  0.0 0.0    6.20175928e-08 -1.43773082e-08  7.76283741e-08
atom     19.0896529838    11.4571696870     0.0000000000   Al  0.0 0.0   -6.27777210e-08  6.27777218e-08  1.22780960e-15
atom     15.2734113354     7.6394809406     7.6394809406   Al  0.0 0.0    4.32069457e-16  4.85782576e-08  4.85782573e-08
atom     15.2734113354    11.4566619552    11.4566619552   Al  0.0 0.0   -1.88397329e-16 -1.22720476e-08 -1.22720479e-08
atom     19.0899563919     7.6387599964    11.4568662789   Al  0.0 0.0   -1.91192462e-07 -1.01847128e-07  1.91192462e-07
atom     19.0899563919    11.4568662789     7.6387599964   Al  0.0 0.0   -1.91192462e-07  1.91192461e-07 -1.01847128e-07
atom     15.2734113354     7.6375645457    15.2734113354   Al  0.0 0.0    9.76965624e-17 -4.26438062e-07  2.84079640e-16
atom     15.2734113354    11.4566619552    19.0901607155   Al  0.0 0.0    2.16797983e-16 -1.22720478e-08  1.22720478e-08
atom     19.0899563919     7.6387599964    19.0899563919   Al  0.0 0.0   -1.91192462e-07 -1.01847128e-07 -1.91192461e-07
atom     19.0901607155    11.4566619552    15.2734113354   Al  0.0 0.0    1.22720472e-08 -1.22720475e-08  2.91526190e-16
atom     15.2734113354     7.6394809406    22.9073417301   Al  0.0 0.0    5.58128721e-16  4.85782571e-08 -4.85782566e-08
atom     15.2734113354    11.4569182700    26.7278381448   Al  0.0 0.0    4.73415917e-16  1.90395879e-07  9.34259814e-07
atom     19.0869687903     7.6408392488    26.7262206933   Al  0.0 0.0    6.20175927e-08 -1.43773082e-08 -7.76283760e-08
atom     19.0899563919    11.4568662789    22.9080626744   Al  0.0 0.0   -1.91192462e-07  1.91192461e-07  1.01847128e-07
atom     15.2734113354    15.2734113354     0.0000000000   Al  0.0 0.0    2.05834108e-16 -1.06225496e-17  9.96913288e-16
atom     15.2734113354    19.0899044007     3.8189845259   Al  0.0 0.0    2.57760708e-16 -1.90395879e-07 -9.34259816e-07
atom     19.0899044007    15.2734113354     3.8189845259   Al  0.0 0.0   -1.90395879e-07 -1.86385880e-16 -9.34259815e-07
atom     19.0896529838    19.0896529838     0.0000000000   Al  0.0 0.0   -6.27777231e-08 -6.27777215e-08  1.23971911e-16
atom     15.2734113354    15.2734113354     7.6375645457   Al  0.0 0.0   -2.58380588e-16 -3.68974295e-16 -4.26438061e-07
atom     15.2734113354    19.0901607155    11.4566619552   Al  0.0 0.0   -1.84534671e-16  1.22720470e-08 -1.22720476e-08
atom     19.0901607155    15.2734113354    11.4566619552   Al  0.0 0.0    1.22720467e-08  1.88173835e-16 -1.22720475e-08
atom     19.0899563919    19.0899563919     7.6387599964   Al  0.0 0.0   -1.91192461e-07 -1.91192462e-07 -1.01847128e-07
atom     15.2734113354    15.2734113354    15.2734113354   Al  0.0 0.0   -2.28921499e-16 -2.50970542e-16 -6.30676166e-16
atom     15.2734113354    19.0901607155    19.0901607155   Al  0.0 0.0   -1.56774983e-16  1.22720473e-08  1.22720475e-08
atom     19.0901607155    15.2734113354    19.0901607155   Al  0.0 0.0    1.22720472e-08 -4.28877282e-16  1.22720472e-08
atom     19.0901607155    19.0901607155    15.2734113354   Al  0.0 0.0    1.22720469e-08  1.22720478e-08 -2.02454950e-16
atom     15.2734113354    15.2734113354    22.9092581251   Al  0.0 0.0   -2.57064923e-16 -9.86838377e-16  4.26438062e-07
atom     15.2734113354    19.0899044007    26.7278381448   Al  0.0 0.0    3.11568034e-16 -1.90395878e-07  9.34259815e-07
atom     19.0899044007    15.2734113354    26.7278381448   Al  0.0 0.0   -1.90395879e-07 -1.57978900e-16  9.34259815e-07
atom     19.0899563919    19.0899563919    22.9080626744   Al  0.0 0.0   -1.91192462e-07 -1.91192461e-07  1.01847128e-07
atom     15.2734113354    22.9089653180     0.0000000000   Al  0.0 0.0    3.99557350e-16 -8.53026670e-07  1.79412749e-16
atom     15.2734113354    26.7266435875     3.8201790832   Al  0.0 0.0    4.69439404e-16 -7.70381023e-07  7.70381024e-07
atom     19.0869687903    22.9059834220     3.8206019774   Al  0.0 0.0    6.20175925e-08  1.43773091e-08  7.76283749e-08
atom     19.0845484853    26.7276885978     0.0000000000   Al  0.0 0.0   -2.90422780e-08  6.45932742e-09  5.50993769e-16
atom     15.2734113354    22.9073417301     7.6394809406   Al  0.0 0.0    4.16854972e-16 -4.85782570e-08  4.85782571e-08
atom     15.2734113354    26.7278381448    11.4569182700   Al  0.0 0.0    4.24934504e-16  9.34259815e-07  1.90395879e-07
atom     19.0899563919    22.9080626744    11.4568662789   Al  0.0 0.0   -1.91192462e-07  1.01847128e-07  1.91192461e-07
atom     19.0869687903    26.7262206933     7.6408392488   Al  0.0 0.0    6.20175926e-08 -7.76283750e-08 -1.43773084e-08
atom     15.2734113354    22.9092581251    15.2734113354   Al  0.0 0.0    6.21959560e-16  4.26438062e-07 -5.14245949e-16
atom     15.2734113354    26.7278381448    19.0899044007   Al  0.0 0.0    9.57378239e-16  9.34259815e-07 -1.90395879e-07
atom     19.0899563919    22.9080626744    19.0899563919   Al  0.0 0.0   -1.91192462e-07  1.01847128e-07 -1.91192462e-07
atom     19.0899044007    26.7278381448    15.2734113354   Al  0.0 0.0   -1.90395879e-07  9.34259815e-07  5.69309238e-16
atom     15.2734113354    22.9073417301    22.9073417301   Al  0.0 0.0    2.86325820e-16 -4.85782567e-08 -4.85782569e-08
atom     15.2734113354    26.7266435875    26.7266435875   Al  0.0 0.0   -2.94207159e-16 -7.70381024e-07 -7.70381024e-07
atom     19.0869687903    22.9059834220    26.7262206933   Al  0.0 0.0    6.20175927e-08  1.43773088e-08 -7.76283745e-08
atom     19.0869687903    26.7262206933    22.9059834220   Al  0.0 0.0    6.20175925e-08 -7.76283750e-08  1.43773083e-08
atom     22.9129168365     0.0000000000     0.0000000000   Al  0.0 0.0   -1.27634914e-06 -1.72723204e-16 -2.62795656e-16
atom     22.8938108517     3.8267751426     3.8267751426   Al  0.0 0.0   -9.63349132e-07 -4.43541685e-07 -4.43541686e-07
atom     26.6827087261     0.0000000000     3.8641139446   Al  0.0 0.0    4.94929192e-07 -1.93773845e-16 -4.94929191e-07
atom     26.6827087261     3.8641139446     0.0000000000   Al  0.0 0.0    4.94929191e-07 -4.94929191e-07  3.74795859e-16
atom     22.8969043571     0.0000000000     7.6499183137   Al  0.0 0.0    3.80117199e-07  1.03498983e-16 -3.80117199e-07
atom     22.9059834220     3.8206019774    11.4598538804   Al  0.0 0.0    1.43773087e-08  7.76283743e-08 -6.20175929e-08
atom     26.7276885978     0.0000000000    11.4622741855   Al  0.0 0.0    6.45932582e-09 -1.17397803e-17  2.90422775e-08
atom     26.7200475282     3.8267751426     7.6530118191   Al  0.0 0.0    4.43541684e-07 -4.43541686e-07  9.63349131e-07
atom     22.9089653180     0.0000000000    15.2734113354   Al  0.0 0.0   -8.53026670e-07  4.55287571e-16  4.03776333e-17
atom     22.9059834220     3.8206019774    19.0869687903   Al  0.0 0.0    1.43773083e-08  7.76283745e-08  6.20175925e-08
atom     26.7276885978     0.0000000000    19.0845484853   Al  0.0 0.0    6.45932697e-09  4.57176731e-16 -2.90422776e-08
atom     26.7266435875     3.8201790832    15.2734113354   Al  0.0 0.0   -7.70381024e-07  7.70381023e-07  1.19086872e-15
atom     22.8969043571     0.0000000000    22.8969043571   Al  0.0 0.0    3.80117199e-07  8.20974980e-16  3.80117200e-07
atom     22.8938108517     3.8267751426    26.7200475282   Al  0.0 0.0   -9.63349131e-07 -4.43541686e-07  4.43541686e-07
atom     26.6827087261     0.0000000000    26.6827087261   Al  0.0 0.0    4.94929190e-07  6.36916816e-17  4.94929190e-07
atom     26.7200475282     3.8267751426    22.8938108517   Al  0.0 0.0    4.43541685e-07 -4.43541686e-07 -9.63349130e-07
atom     22.8969043571     7.6499183137     0.0000000000   Al  0.0 0.0    3.80117199e-07 -3.80117199e-07  7.55191729e-16
atom     22.9059834220    11.4598538804     3.8206019774   Al  0.0 0.0    1.43773086e-08 -6.20175936e-08  7.76283742e-08
atom     26.7200475282     7.6530118191     3.8267751426   Al  0.0 0.0    4.43541684e-07  9.63349132e-07 -4.43541686e-07
atom     26.7276885978    11.4622741855     0.0000000000   Al  0.0 0.0    6.45932607e-09  2.90422773e-08  2.93512507e-16
atom     22.9050171781     7.6418054927     7.6418054927   Al  0.0 0.0   -4.71196280e-07  4.71196281e-07  4.71196280e-07
atom     22.9080626744    11.4568662789    11.4568662789   Al  0.0 0.0    1.01847128e-07  1.91192461e-07  1.91192461e-07
atom     26.7262206933     7.6408392488    11.4598538804   Al  0.0 0.0   -7.76283748e-08 -1.43773076e-08 -6.20175929e-08
atom     26.7262206933    11.4598538804     7.6408392488   Al  0.0 0.0   -7.76283749e-08 -6.20175933e-08 -1.43773085e-08
atom     22.9073417301     7.6394809406    15.2734113354   Al  0.0 0.0   -4.85782569e-08  4.85782569e-08  7.50963486e-16
atom     22.9080626744    11.4568662789    19.0899563919   Al  0.0 0.0    1.01847128e-07  1.91192461e-07 -1.91192462e-07
atom     26.7262206933     7.6408392488    19.0869687903   Al  0.0 0.0   -7.76283748e-08 -1.43773082e-08  6.20175925e-08
atom     26.7278381448    11.4569182700    15.2734113354   Al  0.0 0.0    9.34259815e-07  1.90395879e-07 -1.19583827e-16
atom     22.9050171781     7.6418054927    22.9050171781   Al  0.0 0.0   -4.71196281e-07  4.71196281e-07 -4.71196281e-07
atom     22.9059834220    11.4598538804    26.7262206933   Al  0.0 0.0    1.43773083e-08 -6.20175935e-08 -7.76283737e-08
atom     26.7200475282     7.6530118191    26.7200475282   Al  0.0 0.0    4.43541685e-07  9.63349131e-07  4.43541685e-07
atom     26.7262206933    11.4598538804    22.9059834220   Al  0.0 0.0   -7.76283742e-08 -6.20175934e-08  1.43773088e-08
atom     22.9089653180    15.2734113354     0.0000000000   Al  0.0 0.0   -8.53026670e-07 -1.28547221e-16  1.71786004e-16
atom     22.9059834220    19.0869687903     3.8206019774   Al  0.0 0.0    1.43773085e-08  6.20175924e-08  7.76283748e-08
atom     26.7266435875    15.2734113354     3.8201790832   Al  0.0 0.0   -7.70381024e-07 -1.40456730e-16  7.70381023e-07
atom     26.7276885978    19.0845484853     0.0000000000   Al  0.0 0.0    6.45932646e-09 -2.90422773e-08 -2.99263192e-16
atom     22.9073417301    15.2734113354     7.6394809406   Al  0.0 0.0   -4.85782564e-08  4.14978462e-16  4.85782567e-08
atom     22.9080626744    19.0899563919    11.4568662789   Al  0.0 0.0    1.01847128e-07 -1.91192461e-07  1.91192461e-07
atom     26.7278381448    15.2734113354    11.4569182700   Al  0.0 0.0    9.34259815e-07 -3.15516083e-16  1.90395879e-07
atom     26.7262206933    19.0869687903     7.6408392488   Al  0.0 0.0   -7.76283750e-08  6.20175926e-08 -1.43773077e-08
atom     22.9092581251    15.2734113354    15.2734113354   Al  0.0 0.0    4.26438062e-07 -3.29084933e-16 -3.66065769e-16
atom     22.9080626744    19.0899563919    19.0899563919   Al  0.0 0.0    1.01847128e-07 -1.91192462e-07 -1.91192461e-07
atom     26.7278381448    15.2734113354    19.0899044007   Al  0.0 0.0    9.34259815e-07  3.83322381e-16 -1.90395879e-07
atom     26.7278381448    19.0899044007    15.2734113354   Al  0.0 0.0    9.34259815e-07 -1.90395879e-07 -8.48477440e-17
atom     22.9073417301    15.2734113354    22.9073417301   Al  0.0 0.0   -4.85782563e-08  7.19272386e-16 -4.85782568e-08
atom     22.9059834220    19.0869687903    26.7262206933   Al  0.0 0.0    1.43773093e-08  6.20175929e-08 -7.76283749e-08
atom     26.7266435875    15.2734113354    26.7266435875   Al  0.0 0.0   -7.70381024e-07  3.07863509e-17 -7.70381024e-07
atom     26.7262206933    19.0869687903    22.9059834220   Al  0.0 0.0   -7.76283753e-08  6.20175922e-08  1.43773092e-08
atom     22.8969043571    22.8969043571     0.0000000000   Al  0.0 0.0    3.80117200e-07  3.80117200e-07  4.49518886e-16
atom     22.8938108517    26.7200475282     3.8267751426   Al  0.0 0.0   -9.63349132e-07  4.43541684e-07 -4.43541686e-07
atom     26.7200475282    22.8938108517     3.8267751426   Al  0.0 0.0    4.43541685e-07 -9.63349130e-07 -4.43541686e-07
atom     26.6827087261    26.6827087261     0.0000000000   Al  0.0 0.0    4.94929190e-07  4.94929190e-07 -2.65831807e-16
atom     22.9050171781    22.9050171781     7.6418054927   Al  0.0 0.0   -4.71196281e-07 -4.71196281e-07  4.71196281e-07
atom     22.9059834220    26.7262206933    11.4598538804   Al  0.0 0.0    1.43773088e-08 -7.76283741e-08 -6.20175934e-08