begin
comment 8 atoms, species Al8
lattice     11.1778018474    -0.0000000000     0.0000000000
lattice     -0.0000000000    11.1778018474     0.0000000000
lattice      0.0000000000     0.0000000000    11.1778018474
atom      0.0000000000     0.0000000000     0.0000000000   Al  0.0 0.0   -1.70481581e-13 -3.44998880e-13  7.98590015e-14
atom     -0.0000000000     5.5889009237     5.5889009237   Al  0.0 0.0   -5.77100611e-14 -1.80516476e-13  1.42320540e-13
atom      5.5889009237     5.5889009237     0.0000000000   Al  0.0 0.0    1.06456867e-13  1.41718830e-13 -3.47312559e-13
atom      5.5889009237    -0.0000000000     5.5889009237   Al  0.0 0.0   -6.39291760e-15 -2.28806979e-14 -8.12425891e-14
atom      8.3833513856     2.7944504619     8.3833513856   Al  0.0 0.0    5.74220654e-14  1.80641503e-13  2.15039952e-14
atom      2.7944504619     2.7944504619     2.7944504619   Al  0.0 0.0   -1.06133551e-13 -1.41508270e-13  1.83526435e-13
atom      2.7944504619     8.3833513856     8.3833513856   Al  0.0 0.0    6.70759769e-15  2.27169920e-14  2.45060497e-13
atom      8.3833513856     8.3833513856     2.7944504619   Al  0.0 0.0    1.70096546e-13  3.44837549e-13 -2.43713851e-13
energy -1.578225497315253e+02
charge 0.0000
end
