begin
comment 255 atoms, species Al255
lattice     30.5468226708     0.0000000000     0.0000000000
lattice      0.0000000000    30.5468226708     0.0000000000
lattice      0.0000000000     0.0000000000    30.5468226708
atom     -0.0079066161    -0.0079066161    -0.0131628732   Al  0.0 0.0    1.99442283e-07  1.99442284e-07 -1.54168017e-07
atom     -0.0034105526     3.8139433342     3.8113995520   Al  0.0 0.0    2.43677522e-07  6.99551589e-09  1.60363478e-07
atom      3.8139433342    -0.0034105526     3.8113995520   Al  0.0 0.0    6.99551606e-09  2.43677523e-07  1.60363478e-07
atom      3.8135375406     3.8135375406    -0.0048152932   Al  0.0 0.0    1.15033763e-07  1.15033763e-07  1.15033764e-07
atom     -0.0002972497    -0.0002972497     7.6367056677   Al  0.0 0.0   -4.21252148e-07 -4.21252148e-07 -7.04319347e-16
atom     -0.0034105526     3.8139433342    11.4620117834   Al  0.0 0.0    2.43677522e-07  6.99551638e-09 -1.60363478e-07
atom      3.8139433342    -0.0034105526    11.4620117834   Al  0.0 0.0    6.99551644e-09  2.43677522e-07 -1.60363478e-07
atom      3.8154100579     3.8154100579     7.6367056677   Al  0.0 0.0   -4.60356557e-07 -4.60356557e-07  1.03094163e-16
atom     -0.0079066161    -0.0079066161    15.2865742086   Al  0.0 0.0    1.99442284e-07  1.99442284e-07  1.54168018e-07
atom     -0.0079066161     3.8051899607    19.0996707853   Al  0.0 0.0    1.99442284e-07 -1.54168018e-07 -1.99442280e-07
atom      3.8051899607    -0.0079066161    19.0996707853   Al  0.0 0.0   -1.54168019e-07  1.99442284e-07 -1.99442281e-07
atom      3.8135375406     3.8135375406    15.2782266286   Al  0.0 0.0    1.15033763e-07  1.15033763e-07 -1.15033764e-07
atom     -0.0719935218    -0.0719935218    22.9101170031   Al  0.0 0.0   -8.82759569e-07 -8.82759569e-07  7.31585662e-17
atom     -0.0079066161     3.8051899607    26.7205632208   Al  0.0 0.0    1.99442283e-07 -1.54168018e-07  1.99442280e-07
atom      3.8051899607    -0.0079066161    26.7205632208   Al  0.0 0.0   -1.54168018e-07  1.99442284e-07  1.99442280e-07
atom      3.7885080276     3.7885080276    22.9101170031   Al  0.0 0.0    2.56484166e-07  2.56484166e-07 -8.82844972e-17
atom     -0.0034105526     7.6297523858    -0.0044094996   Al  0.0 0.0    2.43677523e-07  1.60363477e-07  6.99551873e-09
atom     -0.0019636325    11.4550585015     3.8157662156   Al  0.0 0.0    8.48169888e-07  7.01211510e-16 -5.17730355e-07
atom      3.8165144440     7.6343263096     3.8159734758   Al  0.0 0.0    1.28836286e-07 -5.41953097e-07 -5.41953097e-07
atom      3.8154100579    11.4550585015    -0.0029427760   Al  0.0 0.0   -4.60356557e-07  6.09266766e-16 -4.60356554e-07
atom     -0.0019636325     7.6341190494     7.6367056677   Al  0.0 0.0    8.48169886e-07 -5.17730354e-07  6.62977104e-16
atom     -0.0019636325    11.4550585015    11.4576451198   Al  0.0 0.0    8.48169887e-07  5.56437754e-16  5.17730355e-07
atom      3.8165144440     7.6343263096    11.4574378596   Al  0.0 0.0    1.28836286e-07 -5.41953098e-07  5.41953097e-07
atom      3.8174599398    11.4550585015     7.6367056677   Al  0.0 0.0    1.76011488e-06  3.24092153e-16 -1.31463611e-15
atom     -0.0034105526     7.6297523858    15.2778208350   Al  0.0 0.0    2.43677522e-07  1.60363478e-07 -6.99551901e-09
atom     -0.0002972497    11.4550585015    19.0920614190   Al  0.0 0.0   -4.21252148e-07  3.99869399e-16  4.21252144e-07
atom      3.8139433342     7.6297523858    19.0951747218   Al  0.0 0.0    6.99551827e-09  1.60363479e-07 -2.43677521e-07
atom      3.8154100579    11.4550585015    15.2763541113   Al  0.0 0.0   -4.60356558e-07  5.40698268e-16  4.60356556e-07
atom     -0.0041195493     7.6308871705    22.9101170031   Al  0.0 0.0   -4.78518119e-07 -4.61427980e-07  7.25142277e-16
atom     -0.0002972497    11.4550585015    26.7281725872   Al  0.0 0.0   -4.21252148e-07  1.29702644e-16 -4.21252143e-07
atom      3.8139433342     7.6297523858    26.7250592843   Al  0.0 0.0    6.99551796e-09  1.60363477e-07  2.43677522e-07
atom      3.8149337566    11.4550585015    22.9101170031   Al  0.0 0.0   -6.13860311e-08  4.33208013e-16 -8.35190066e-16
atom     -0.0034105526    15.2803646173    -0.0044094996   Al  0.0 0.0    2.43677523e-07 -1.60363476e-07  6.99551772e-09
atom     -0.0034105526    19.0961736689     3.8113995520   Al  0.0 0.0    2.43677522e-07 -6.99551684e-09  1.60363477e-07
atom      3.8165144440    15.2757906935     3.8159734758   Al  0.0 0.0    1.28836287e-07  5.41953098e-07 -5.41953097e-07
atom      3.8135375406    19.0965794624    -0.0048152932   Al  0.0 0.0    1.15033763e-07 -1.15033763e-07  1.15033763e-07
atom     -0.0019636325    15.2759979537     7.6367056677   Al  0.0 0.0    8.48169886e-07  5.17730356e-07  5.79800667e-16
atom     -0.0034105526    19.0961736689    11.4620117834   Al  0.0 0.0    2.43677522e-07 -6.99551719e-09 -1.60363478e-07
atom      3.8165144440    15.2757906935    11.4574378596   Al  0.0 0.0    1.28836286e-07  5.41953099e-07  5.41953098e-07
atom      3.8154100579    19.0947069452     7.6367056677   Al  0.0 0.0   -4.60356557e-07  4.60356555e-07 -7.94925156e-17
atom     -0.0034105526    15.2803646173    15.2778208350   Al  0.0 0.0    2.43677522e-07 -1.60363477e-07 -6.99551683e-09
atom     -0.0079066161    19.1049270424    19.0996707853   Al  0.0 0.0    1.99442284e-07  1.54168018e-07 -1.99442281e-07
atom      3.8139433342    15.2803646173    19.0951747218   Al  0.0 0.0    6.99551659e-09 -1.60363478e-07 -2.43677521e-07
atom      3.8135375406    19.0965794624    15.2782266286   Al  0.0 0.0    1.15033763e-07 -1.15033762e-07 -1.15033763e-07
atom     -0.0041195493    15.2792298325    22.9101170031   Al  0.0 0.0   -4.78518118e-07  4.61427981e-07  1.12192470e-15
atom     -0.0079066161    19.1049270424    26.7205632208   Al  0.0 0.0    1.99442284e-07  1.54168017e-07  1.99442281e-07
atom      3.8139433342    15.2803646173    26.7250592843   Al  0.0 0.0    6.99551705e-09 -1.60363476e-07  2.43677523e-07
atom      3.7885080276    19.1216089755    22.9101170031   Al  0.0 0.0    2.56484165e-07 -2.56484164e-07  8.90131871e-16
atom     -0.0079066161    22.9180236192    -0.0131628732   Al  0.0 0.0    1.99442284e-07 -1.99442281e-07 -1.54168018e-07
atom     -0.0041195493    26.7284698369     3.8125343367   Al  0.0 0.0   -4.78518119e-07 -1.07088387e-15 -4.61427982e-07
atom      3.8139433342    22.9135275557     3.8113995520   Al  0.0 0.0    6.99551596e-09 -2.43677522e-07  1.60363477e-07
atom      3.7885080276    26.7284698369    -0.0298448063   Al  0.0 0.0    2.56484164e-07 -2.70959527e-16  2.56484165e-07
atom     -0.0002972497    22.9104142528     7.6367056677   Al  0.0 0.0   -4.21252147e-07  4.21252144e-07 -1.96101560e-16
atom     -0.0041195493    26.7284698369    11.4608769987   Al  0.0 0.0   -4.78518118e-07 -1.09895139e-15  4.61427982e-07
atom      3.8139433342    22.9135275557    11.4620117834   Al  0.0 0.0    6.99551646e-09 -2.43677522e-07 -1.60363478e-07
atom      3.8149337566    26.7284698369     7.6367056677   Al  0.0 0.0   -6.13860292e-08 -2.09237969e-15 -5.47620268e-16
atom     -0.0079066161    22.9180236192    15.2865742086   Al  0.0 0.0    1.99442284e-07 -1.99442281e-07  1.54168020e-07
atom     -0.0719935218    26.7284698369    19.1637576910   Al  0.0 0.0   -8.82759569e-07  6.80097617e-17  8.82759570e-07
atom      3.8051899607    22.9180236192    19.0996707853   Al  0.0 0.0   -1.54168019e-07 -1.99442281e-07 -1.99442281e-07
atom      3.7885080276    26.7284698369    15.3032561417   Al  0.0 0.0    2.56484164e-07 -1.64356924e-16 -2.56484163e-07
atom     -0.0719935218    22.9821105249    22.9101170031   Al  0.0 0.0   -8.82759569e-07  8.82759569e-07  5.01192474e-16
atom     -0.0719935218    26.7284698369    26.6564763151   Al  0.0 0.0   -8.82759570e-07  7.42170018e-17 -8.82759570e-07
atom      3.8051899607    22.9180236192    26.7205632208   Al  0.0 0.0   -1.54168018e-07 -1.99442281e-07  1.99442281e-07
atom      3.7971332680    26.7284698369    22.9101170031   Al  0.0 0.0   -1.60106265e-06  8.29611140e-16  8.78754603e-17
atom      7.6297523858    -0.0034105526    -0.0044094996   Al  0.0 0.0    1.60363477e-07  2.43677523e-07  6.99551861e-09
atom      7.6343263096     3.8165144440     3.8159734758   Al  0.0 0.0   -5.41953097e-07  1.28836287e-07 -5.41953096e-07
atom     11.4550585015    -0.0019636325     3.8157662156   Al  0.0 0.0    8.43796708e-16  8.48169888e-07 -5.17730355e-07
atom     11.4550585015     3.8154100579    -0.0029427760   Al  0.0 0.0    7.13259123e-16 -4.60356556e-07 -4.60356554e-07
atom      7.6341190494    -0.0019636325     7.6367056677   Al  0.0 0.0   -5.17730354e-07  8.48169886e-07  4.67027351e-16
atom      7.6343263096     3.8165144440    11.4574378596   Al  0.0 0.0   -5.41953098e-07  1.28836286e-07  5.41953097e-07
atom     11.4550585015    -0.0019636325    11.4576451198   Al  0.0 0.0    3.65822349e-16  8.48169887e-07  5.17730356e-07
atom     11.4550585015     3.8174599398     7.6367056677   Al  0.0 0.0    2.59877579e-16  1.76011488e-06 -1.62969572e-15
atom      7.6297523858    -0.0034105526    15.2778208350   Al  0.0 0.0    1.60363478e-07  2.43677522e-07 -6.99551822e-09
atom      7.6297523858     3.8139433342    19.0951747218   Al  0.0 0.0    1.60363479e-07  6.99551824e-09 -2.43677521e-07
atom     11.4550585015    -0.0002972497    19.0920614190   Al  0.0 0.0    9.36618563e-16 -4.21252148e-07  4.21252144e-07
atom     11.4550585015     3.8154100579    15.2763541113   Al  0.0 0.0    9.72951159e-16 -4.60356557e-07  4.60356556e-07
atom      7.6308871705    -0.0041195493    22.9101170031   Al  0.0 0.0   -4.61427980e-07 -4.78518118e-07  1.04877057e-15
atom      7.6297523858     3.8139433342    26.7250592843   Al  0.0 0.0    1.60363477e-07  6.99551837e-09  2.43677523e-07
atom     11.4550585015    -0.0002972497    26.7281725872   Al  0.0 0.0    6.51254191e-16 -4.21252148e-07 -4.21252144e-07
atom     11.4550585015     3.8149337566    22.9101170031   Al  0.0 0.0    1.01237051e-15 -6.13860312e-08 -1.05677420e-15
atom      7.6343263096     7.6343263096    -0.0018383898   Al  0.0 0.0   -5.41953097e-07 -5.41953097e-07  1.28836285e-07
atom      7.6361480762    11.4550585015     3.8177952423   Al  0.0 0.0    3.66707125e-07  1.23404320e-15  3.66707115e-07
atom     11.4550585015     7.6361480762     3.8177952423   Al  0.0 0.0    1.29265776e-15  3.66707125e-07  3.66707115e-07
atom     11.4550585015    11.4550585015    -0.0008928941   Al  0.0 0.0    1.09925500e-16  4.40115255e-16  1.76011487e-06
atom      7.6361480762     7.6361480762     7.6367056677   Al  0.0 0.0    3.66707120e-07  3.66707120e-07 -4.34329702e-16
atom      7.6361480762    11.4550585015    11.4556160930   Al  0.0 0.0    3.66707120e-07  1.09512246e-15 -3.66707120e-07
atom     11.4550585015     7.6361480762    11.4556160930   Al  0.0 0.0    1.10409597e-15  3.66707120e-07 -3.66707119e-07
atom     11.4550585015    11.4550585015     7.6367056677   Al  0.0 0.0    7.55292934e-16  7.46488098e-16  1.17005634e-16
atom      7.6343263096     7.6343263096    15.2752497252   Al  0.0 0.0   -5.41953096e-07 -5.41953096e-07 -1.28836286e-07
atom      7.6341190494    11.4550585015    19.0937278017   Al  0.0 0.0   -5.17730354e-07 -9.71315011e-17 -8.48169888e-07
atom     11.4550585015     7.6341190494    19.0937278017   Al  0.0 0.0    8.39647303e-16 -5.17730355e-07 -8.48169888e-07
atom     11.4550585015    11.4550585015    15.2743042295   Al  0.0 0.0    4.64918914e-16  4.83093646e-16 -1.76011488e-06
atom      7.6285309413     7.6285309413    22.9101170031   Al  0.0 0.0    1.92380918e-07  1.92380918e-07  1.07059712e-15
atom      7.6341190494    11.4550585015    26.7265062044   Al  0.0 0.0   -5.17730359e-07  8.42818393e-16  8.48169885e-07
atom     11.4550585015     7.6341190494    26.7265062044   Al  0.0 0.0    5.02280427e-16 -5.17730359e-07  8.48169885e-07
atom     11.4550585015    11.4550585015    22.9101170031   Al  0.0 0.0    5.29757586e-16  4.26680290e-16  5.99177243e-16
atom      7.6343263096    15.2757906935    -0.0018383898   Al  0.0 0.0   -5.41953097e-07  5.41953097e-07  1.28836285e-07
atom      7.6343263096    19.0936025591     3.8159734758   Al  0.0 0.0   -5.41953097e-07 -1.28836287e-07 -5.41953096e-07
atom     11.4550585015    15.2739689269     3.8177952423   Al  0.0 0.0    1.12948156e-15 -3.66707124e-07  3.66707116e-07
atom     11.4550585015    19.0947069452    -0.0029427760   Al  0.0 0.0    2.37545008e-16  4.60356555e-07 -4.60356556e-07
atom      7.6361480762    15.2739689269     7.6367056677   Al  0.0 0.0    3.66707120e-07 -3.66707119e-07  5.57363833e-17
atom      7.6343263096    19.0936025591    11.4574378596   Al  0.0 0.0   -5.41953097e-07 -1.28836286e-07  5.41953097e-07
atom     11.4550585015    15.2739689269    11.4556160930   Al  0.0 0.0    1.01793678e-15 -3.66707119e-07 -3.66707120e-07
atom     11.4550585015    19.0926570633     7.6367056677   Al  0.0 0.0   -2.80675207e-16 -1.76011488e-06 -7.16449187e-16
atom      7.6343263096    15.2757906935    15.2752497252   Al  0.0 0.0   -5.41953097e-07  5.41953098e-07 -1.28836286e-07
atom      7.6297523858    19.0961736689    19.0951747218   Al  0.0 0.0    1.60363478e-07 -6.99551793e-09 -2.43677521e-07
atom     11.4550585015    15.2759979537    19.0937278017   Al  0.0 0.0    6.75222909e-16  5.17730355e-07 -8.48169890e-07
atom     11.4550585015    19.0947069452    15.2763541113   Al  0.0 0.0    6.12779423e-16  4.60356555e-07  4.60356555e-07
atom      7.6285309413    15.2815860618    22.9101170031   Al  0.0 0.0    1.92380917e-07 -1.92380919e-07  9.19090795e-16
atom      7.6297523858    19.0961736689    26.7250592843   Al  0.0 0.0    1.60363477e-07 -6.99551793e-09  2.43677523e-07
atom     11.4550585015    15.2759979537    26.7265062044   Al  0.0 0.0    1.88156967e-16  5.17730360e-07  8.48169886e-07
atom     11.4550585015    19.0951832465    22.9101170031   Al  0.0 0.0    1.04705009e-15  6.13860305e-08 -4.45760313e-16
atom      7.6297523858    22.9135275557    -0.0044094996   Al  0.0 0.0    1.60363477e-07 -2.43677523e-07  6.99551817e-09
atom      7.6285309413    26.7284698369     3.8101781075   Al  0.0 0.0    1.92380918e-07 -6.67716871e-16  1.92380920e-07
atom     11.4550585015    22.9120806355     3.8157662156   Al  0.0 0.0    2.88265582e-17 -8.48169891e-07 -5.17730355e-07
atom     11.4550585015    26.7284698369    -0.0034190772   Al  0.0 0.0    6.49381898e-16 -2.83250874e-15 -6.13860274e-08
atom      7.6341190494    22.9120806355     7.6367056677   Al  0.0 0.0   -5.17730353e-07 -8.48169889e-07  1.02120908e-15
atom      7.6285309413    26.7284698369    11.4632332279   Al  0.0 0.0    1.92380918e-07 -7.93143605e-16 -1.92380920e-07
atom     11.4550585015    22.9120806355    11.4576451198   Al  0.0 0.0    2.48205269e-16 -8.48169890e-07  5.17730355e-07
atom     11.4550585015    26.7284698369     7.6367056677   Al  0.0 0.0    3.36439163e-16 -2.16376295e-16  2.92119806e-16
atom      7.6297523858    22.9135275557    15.2778208350   Al  0.0 0.0    1.60363477e-07 -2.43677521e-07 -6.99551799e-09
atom      7.6308871705    26.7284698369    19.0958837185   Al  0.0 0.0   -4.61427981e-07 -2.12645204e-15  4.78518116e-07
atom     11.4550585015    22.9104142528    19.0920614190   Al  0.0 0.0    5.84560094e-16  4.21252144e-07  4.21252144e-07
atom     11.4550585015    26.7284698369    15.2768304126   Al  0.0 0.0    9.73693329e-16 -1.98140841e-15  6.13860292e-08
atom      7.6308871705    22.9142365524    22.9101170031   Al  0.0 0.0   -4.61427981e-07  4.78518116e-07  1.24253177e-15
atom      7.6308871705    26.7284698369    26.7243502876   Al  0.0 0.0   -4.61427982e-07 -1.50576176e-15 -4.78518117e-07
atom     11.4550585015    22.9104142528    26.7281725872   Al  0.0 0.0    1.11190563e-16  4.21252144e-07 -4.21252142e-07
atom     11.4550585015    26.7284698369    22.9101170031   Al  0.0 0.0    1.27832039e-15 -3.05133083e-15 -3.29835537e-16
atom     15.2803646173    -0.0034105526    -0.0044094996   Al  0.0 0.0   -1.60363476e-07  2.43677523e-07  6.99551744e-09
atom     15.2757906935     3.8165144440     3.8159734758   Al  0.0 0.0    5.41953098e-07  1.28836287e-07 -5.41953097e-07
atom     19.0961736689    -0.0034105526     3.8113995520   Al  0.0 0.0   -6.99551665e-09  2.43677523e-07  1.60363477e-07
atom     19.0965794624     3.8135375406    -0.0048152932   Al  0.0 0.0   -1.15033763e-07  1.15033763e-07  1.15033763e-07
atom     15.2759979537    -0.0019636325     7.6367056677   Al  0.0 0.0    5.17730355e-07  8.48169887e-07  7.46202076e-16
atom     15.2757906935     3.8165144440    11.4574378596   Al  0.0 0.0    5.41953100e-07  1.28836287e-07  5.41953099e-07
atom     19.0961736689    -0.0034105526    11.4620117834   Al  0.0 0.0   -6.99551689e-09  2.43677522e-07 -1.60363477e-07
atom     19.0947069452     3.8154100579     7.6367056677   Al  0.0 0.0    4.60356555e-07 -4.60356557e-07 -6.52282275e-17
atom     15.2803646173    -0.0034105526    15.2778208350   Al  0.0 0.0   -1.60363477e-07  2.43677522e-07 -6.99551629e-09
atom     15.2803646173     3.8139433342    19.0951747218   Al  0.0 0.0   -1.60363477e-07  6.99551682e-09 -2.43677521e-07
atom     19.1049270424    -0.0079066161    19.0996707853   Al  0.0 0.0    1.54168018e-07  1.99442284e-07 -1.99442281e-07
atom     19.0965794624     3.8135375406    15.2782266286   Al  0.0 0.0   -1.15033763e-07  1.15033763e-07 -1.15033763e-07
atom     15.2792298325    -0.0041195493    22.9101170031   Al  0.0 0.0    4.61427982e-07 -4.78518119e-07  7.29583683e-16
atom     15.2803646173     3.8139433342    26.7250592843   Al  0.0 0.0   -1.60363476e-07  6.99551684e-09  2.43677523e-07
atom     19.1049270424    -0.0079066161    26.7205632208   Al  0.0 0.0    1.54168017e-07  1.99442284e-07  1.99442281e-07
atom     19.1216089755     3.7885080276    22.9101170031   Al  0.0 0.0   -2.56484165e-07  2.56484165e-07  6.29242057e-16
atom     15.2757906935     7.6343263096    -0.0018383898   Al  0.0 0.0    5.41953098e-07 -5.41953097e-07  1.28836286e-07
atom     15.2739689269    11.4550585015     3.8177952423   Al  0.0 0.0   -3.66707124e-07  7.69525489e-16  3.66707116e-07
atom     19.0936025591     7.6343263096     3.8159734758   Al  0.0 0.0   -1.28836286e-07 -5.41953097e-07 -5.41953097e-07
atom     19.0947069452    11.4550585015    -0.0029427760   Al  0.0 0.0    4.60356555e-07  4.93246744e-16 -4.60356555e-07
atom     15.2739689269     7.6361480762     7.6367056677   Al  0.0 0.0   -3.66707119e-07  3.66707120e-07 -3.75933402e-16
atom     15.2739689269    11.4550585015    11.4556160930   Al  0.0 0.0   -3.66707119e-07  1.04985552e-15 -3.66707120e-07
atom     19.0936025591     7.6343263096    11.4574378596   Al  0.0 0.0   -1.28836286e-07 -5.41953098e-07  5.41953097e-07
atom     19.0926570633    11.4550585015     7.6367056677   Al  0.0 0.0   -1.76011488e-06  2.26383369e-17 -1.17640743e-15
atom     15.2757906935     7.6343263096    15.2752497252   Al  0.0 0.0    5.41953098e-07 -5.41953098e-07 -1.28836287e-07
atom     15.2759979537    11.4550585015    19.0937278017   Al  0.0 0.0    5.17730355e-07  6.58572226e-16 -8.48169890e-07
atom     19.0961736689     7.6297523858    19.0951747218   Al  0.0 0.0   -6.99551815e-09  1.60363478e-07 -2.43677521e-07
atom     19.0947069452    11.4550585015    15.2763541113   Al  0.0 0.0    4.60356555e-07  6.12863718e-16  4.60356555e-07
atom     15.2815860618     7.6285309413    22.9101170031   Al  0.0 0.0   -1.92380918e-07  1.92380917e-07  5.15295632e-16
atom     15.2759979537    11.4550585015    26.7265062044   Al  0.0 0.0    5.17730360e-07  5.30097453e-16  8.48169886e-07
atom     19.0961736689     7.6297523858    26.7250592843   Al  0.0 0.0   -6.99551804e-09  1.60363477e-07  2.43677523e-07
atom     19.0951832465    11.4550585015    22.9101170031   Al  0.0 0.0    6.13860297e-08  8.36703042e-16 -6.87000925e-16
atom     15.2757906935    15.2757906935    -0.0018383898   Al  0.0 0.0    5.41953099e-07  5.41953098e-07  1.28836286e-07
atom     15.2757906935    19.0936025591     3.8159734758   Al  0.0 0.0    5.41953098e-07 -1.28836286e-07 -5.41953097e-07
atom     19.0936025591    15.2757906935     3.8159734758   Al  0.0 0.0   -1.28836286e-07  5.41953097e-07 -5.41953097e-07
atom     19.0965794624    19.0965794624    -0.0048152932   Al  0.0 0.0   -1.15033763e-07 -1.15033762e-07  1.15033762e-07
atom     15.2739689269    15.2739689269     7.6367056677   Al  0.0 0.0   -3.66707119e-07 -3.66707120e-07 -4.73603572e-16
atom     15.2757906935    19.0936025591    11.4574378596   Al  0.0 0.0    5.41953099e-07 -1.28836286e-07  5.41953098e-07
atom     19.0936025591    15.2757906935    11.4574378596   Al  0.0 0.0   -1.28836286e-07  5.41953099e-07  5.41953098e-07
atom     19.0947069452    19.0947069452     7.6367056677   Al  0.0 0.0    4.60356556e-07  4.60356555e-07 -1.53177638e-16
atom     15.2757906935    15.2757906935    15.2752497252   Al  0.0 0.0    5.41953098e-07  5.41953098e-07 -1.28836286e-07
atom     15.2803646173    19.0961736689    19.0951747218   Al  0.0 0.0   -1.60363477e-07 -6.99551714e-09 -2.43677521e-07
atom     19.0961736689    15.2803646173    19.0951747218   Al  0.0 0.0   -6.99551612e-09 -1.60363477e-07 -2.43677521e-07
atom     19.0965794624    19.0965794624    15.2782266286   Al  0.0 0.0   -1.15033762e-07 -1.15033762e-07 -1.15033763e-07
atom     15.2815860618    15.2815860618    22.9101170031   Al  0.0 0.0   -1.92380917e-07 -1.92380917e-07  5.85424252e-16
atom     15.2803646173    19.0961736689    26.7250592843   Al  0.0 0.0   -1.60363476e-07 -6.99551652e-09  2.43677523e-07
atom     19.0961736689    15.2803646173    26.7250592843   Al  0.0 0.0   -6.99551687e-09 -1.60363476e-07  2.43677523e-07
atom     19.1216089755    19.1216089755    22.9101170031   Al  0.0 0.0   -2.56484164e-07 -2.56484163e-07  5.21527685e-16
atom     15.2803646173    22.9135275557    -0.0044094996   Al  0.0 0.0   -1.60363475e-07 -2.43677523e-07  6.99551741e-09
atom     15.2815860618    26.7284698369     3.8101781075   Al  0.0 0.0   -1.92380918e-07 -3.00639268e-16  1.92380918e-07
atom     19.0961736689    22.9135275557     3.8113995520   Al  0.0 0.0   -6.99551683e-09 -2.43677522e-07  1.60363476e-07
atom     19.1216089755    26.7284698369    -0.0298448063   Al  0.0 0.0   -2.56484163e-07 -8.05860065e-16  2.56484164e-07
atom     15.2759979537    22.9120806355     7.6367056677   Al  0.0 0.0    5.17730355e-07 -8.48169890e-07  6.59988205e-16
atom     15.2815860618    26.7284698369    11.4632332279   Al  0.0 0.0   -1.92380918e-07 -2.21449357e-16 -1.92380918e-07
atom     19.0961736689    22.9135275557    11.4620117834   Al  0.0 0.0   -6.99551679e-09 -2.43677522e-07 -1.60363477e-07
atom     19.0951832465    26.7284698369     7.6367056677   Al  0.0 0.0    6.13860273e-08 -1.90379795e-15  5.70314686e-17
atom     15.2803646173    22.9135275557    15.2778208350   Al  0.0 0.0   -1.60363476e-07 -2.43677522e-07 -6.99551658e-09
atom     15.2792298325    26.7284698369    19.0958837185   Al  0.0 0.0    4.61427982e-07 -9.57275251e-16  4.78518116e-07
atom     19.1049270424    22.9180236192    19.0996707853   Al  0.0 0.0    1.54168019e-07 -1.99442281e-07 -1.99442280e-07
atom     19.1216089755    26.7284698369    15.3032561417   Al  0.0 0.0   -2.56484162e-07  2.72413258e-16 -2.56484163e-07
atom     15.2792298325    22.9142365524    22.9101170031   Al  0.0 0.0    4.61427983e-07  4.78518115e-07  9.84946360e-16
atom     15.2792298325    26.7284698369    26.7243502876   Al  0.0 0.0    4.61427983e-07 -9.94362922e-16 -4.78518117e-07
atom     19.1049270424    22.9180236192    26.7205632208   Al  0.0 0.0    1.54168018e-07 -1.99442282e-07  1.99442281e-07
atom     19.1129837351    26.7284698369    22.9101170031   Al  0.0 0.0    1.60106265e-06  4.33978315e-16 -9.46039088e-17
atom     22.9180236192    -0.0079066161    -0.0131628732   Al  0.0 0.0   -1.99442281e-07  1.99442284e-07 -1.54168018e-07
atom     22.9135275557     3.8139433342     3.8113995520   Al  0.0 0.0   -2.43677522e-07  6.99551677e-09  1.60363477e-07
atom     26.7284698369    -0.0041195493     3.8125343367   Al  0.0 0.0   -1.44223876e-15 -4.78518119e-07 -4.61427982e-07
atom     26.7284698369     3.7885080276    -0.0298448063   Al  0.0 0.0    2.66641447e-16  2.56484164e-07  2.56484165e-07
atom     22.9104142528    -0.0002972497     7.6367056677   Al  0.0 0.0    4.21252144e-07 -4.21252147e-07 -4.09644115e-16
atom     22.9135275557     3.8139433342    11.4620117834   Al  0.0 0.0   -2.43677522e-07  6.99551635e-09 -1.60363477e-07
atom     26.7284698369    -0.0041195493    11.4608769987   Al  0.0 0.0   -1.19934675e-15 -4.78518118e-07  4.61427982e-07
atom     26.7284698369     3.8149337566     7.6367056677   Al  0.0 0.0   -2.49153222e-15 -6.13860292e-08  8.07109895e-18
atom     22.9180236192    -0.0079066161    15.2865742086   Al  0.0 0.0   -1.99442282e-07  1.99442284e-07  1.54168020e-07
atom     22.9180236192     3.8051899607    19.0996707853   Al  0.0 0.0   -1.99442281e-07 -1.54168019e-07 -1.99442281e-07
atom     26.7284698369    -0.0719935218    19.1637576910   Al  0.0 0.0   -3.43287368e-16 -8.82759569e-07  8.82759570e-07
atom     26.7284698369     3.7885080276    15.3032561417   Al  0.0 0.0   -5.39760013e-16  2.56484164e-07 -2.56484163e-07
atom     22.9821105249    -0.0719935218    22.9101170031   Al  0.0 0.0    8.82759569e-07 -8.82759569e-07 -1.85580456e-16
atom     22.9180236192     3.8051899607    26.7205632208   Al  0.0 0.0   -1.99442282e-07 -1.54168018e-07  1.99442280e-07
atom     26.7284698369    -0.0719935218    26.6564763151   Al  0.0 0.0    1.95393125e-16 -8.82759570e-07 -8.82759570e-07
atom     26.7284698369     3.7971332680    22.9101170031   Al  0.0 0.0    6.94131377e-16 -1.60106265e-06 -3.30113851e-16
atom     22.9135275557     7.6297523858    -0.0044094996   Al  0.0 0.0   -2.43677522e-07  1.60363477e-07  6.99551886e-09
atom     22.9120806355    11.4550585015     3.8157662156   Al  0.0 0.0   -8.48169891e-07  1.95393125e-16 -5.17730355e-07
atom     26.7284698369     7.6285309413     3.8101781075   Al  0.0 0.0   -3.79991049e-16  1.92380918e-07  1.92380919e-07
atom     26.7284698369    11.4550585015    -0.0034190772   Al  0.0 0.0   -2.92441975e-15  1.00356567e-15 -6.13860273e-08
atom     22.9120806355     7.6341190494     7.6367056677   Al  0.0 0.0   -8.48169889e-07 -5.17730354e-07  3.22911428e-16
atom     22.9120806355    11.4550585015    11.4576451198   Al  0.0 0.0   -8.48169891e-07  1.55096666e-16  5.17730355e-07
atom     26.7284698369     7.6285309413    11.4632332279   Al  0.0 0.0   -9.17592023e-17  1.92380917e-07 -1.92380919e-07
atom     26.7284698369    11.4550585015     7.6367056677   Al  0.0 0.0   -4.04820010e-16  1.03924044e-15  3.77005502e-16
atom     22.9135275557     7.6297523858    15.2778208350   Al  0.0 0.0   -2.43677522e-07  1.60363477e-07 -6.99551780e-09
atom     22.9104142528    11.4550585015    19.0920614190   Al  0.0 0.0    4.21252144e-07  1.09175740e-15  4.21252143e-07
atom     26.7284698369     7.6308871705    19.0958837185   Al  0.0 0.0   -1.54587268e-15 -4.61427981e-07  4.78518116e-07
atom     26.7284698369    11.4550585015    15.2768304126   Al  0.0 0.0   -2.21517509e-15  1.18085154e-15  6.13860287e-08
atom     22.9142365524     7.6308871705    22.9101170031   Al  0.0 0.0    4.78518115e-07 -4.61427981e-07  9.07745619e-16
atom     22.9104142528    11.4550585015    26.7281725872   Al  0.0 0.0    4.21252144e-07  5.04953926e-16 -4.21252142e-07
atom     26.7284698369     7.6308871705    26.7243502876   Al  0.0 0.0   -1.76609476e-15 -4.61427982e-07 -4.78518116e-07
atom     26.7284698369    11.4550585015    22.9101170031   Al  0.0 0.0   -3.07771160e-15  1.46879663e-15 -1.87284074e-16
atom     22.9135275557    15.2803646173    -0.0044094996   Al  0.0 0.0   -2.43677523e-07 -1.60363475e-07  6.99551732e-09
atom     22.9135275557    19.0961736689     3.8113995520   Al  0.0 0.0   -2.43677522e-07 -6.99551674e-09  1.60363476e-07
atom     26.7284698369    15.2815860618     3.8101781075   Al  0.0 0.0   -5.75384174e-16 -1.92380917e-07  1.92380918e-07
atom     26.7284698369    19.1216089755    -0.0298448063   Al  0.0 0.0   -2.32096806e-16 -2.56484162e-07  2.56484164e-07
atom     22.9120806355    15.2759979537     7.6367056677   Al  0.0 0.0   -8.48169890e-07  5.17730355e-07  5.55539051e-16
atom     22.9135275557    19.0961736689    11.4620117834   Al  0.0 0.0   -2.43677522e-07 -6.99551624e-09 -1.60363477e-07
atom     26.7284698369    15.2815860618    11.4632332279   Al  0.0 0.0    4.33967051e-16 -1.92380918e-07 -1.92380919e-07
atom     26.7284698369    19.0951832465     7.6367056677   Al  0.0 0.0   -2.01330485e-15  6.13860272e-08 -5.31705366e-16
atom     22.9135275557    15.2803646173    15.2778208350   Al  0.0 0.0   -2.43677522e-07 -1.60363476e-07 -6.99551634e-09
atom     22.9180236192    19.1049270424    19.0996707853   Al  0.0 0.0   -1.99442281e-07  1.54168019e-07 -1.99442280e-07
atom     26.7284698369    15.2792298325    19.0958837185   Al  0.0 0.0   -2.09642789e-15  4.61427982e-07  4.78518116e-07
atom     26.7284698369    19.1216089755    15.3032561417   Al  0.0 0.0   -6.30439696e-16 -2.56484163e-07 -2.56484163e-07
atom     22.9142365524    15.2792298325    22.9101170031   Al  0.0 0.0    4.78518115e-07  4.61427983e-07  8.03052325e-16
atom     22.9180236192    19.1049270424    26.7205632208   Al  0.0 0.0   -1.99442281e-07  1.54168018e-07  1.99442281e-07
atom     26.7284698369    15.2792298325    26.7243502876   Al  0.0 0.0   -2.05540613e-15  4.61427983e-07 -4.78518116e-07
atom     26.7284698369    19.1129837351    22.9101170031   Al  0.0 0.0   -6.69302416e-17  1.60106265e-06 -2.78629255e-16
atom     22.9180236192    22.9180236192    -0.0131628732   Al  0.0 0.0   -1.99442281e-07 -1.99442281e-07 -1.54168020e-07
atom     22.9142365524    26.7284698369     3.8125343367   Al  0.0 0.0    4.78518116e-07 -6.85984374e-16 -4.61427983e-07
atom     26.7284698369    22.9142365524     3.8125343367   Al  0.0 0.0   -1.00395362e-15  4.78518115e-07 -4.61427984e-07
atom     26.7284698369    26.7284698369    -0.0212195658   Al  0.0 0.0    6.87654257e-16  5.14796113e-16 -1.60106265e-06
atom     22.9104142528    22.9104142528     7.6367056677   Al  0.0 0.0    4.21252143e-07  4.21252142e-07 -2.28632643e-16
atom     22.9142365524    26.7284698369    11.4608769987   Al  0.0 0.0    4.78518115e-07 -8.83975094e-16  4.61427982e-07