begin
comment 2 atoms, species Al2
lattice      5.3758859263    -0.0000000000    -0.0000000000
lattice     -2.6879429632     4.6556537800     0.0000000000
lattice     -0.0000000000    -0.0000000000     8.9709396459
atom     -0.0000000000     3.1037691867     6.7282047344   Al  0.0 0.0   -3.30543635e-14 -2.46562374e-14  7.11476279e-14
atom      2.6879429632     1.5518845933     2.2427349115   Al  0.0 0.0    3.30544984e-14  2.45339143e-14 -7.11973047e-14
energy -3.950095154415056e+01
charge 0.0000
end
