LAMMPS (29 Mar 2019)
Total wall time: 0:02:24
