begin
comment 4 atoms, species Al4
lattice      7.4161462699     0.0000000000    -0.0000000000
lattice      0.0000000000     7.4161462699    -0.0000000000
lattice     -0.0000000000    -0.0000000000     7.4161462699
atom      0.0000000000     0.0000000000     0.0000000000   Al  0.0 0.0   -9.44423493e-14 -9.44021875e-14 -9.45446210e-14
atom      0.0000000000     3.7080731350     3.7080731350   Al  0.0 0.0   -9.44493662e-14  9.43811836e-14  9.45434910e-14
atom      3.7080731350     0.0000000000     3.7080731350   Al  0.0 0.0    9.44542240e-14 -9.43842173e-14  9.45274809e-14
atom      3.7080731350     3.7080731350    -0.0000000000   Al  0.0 0.0    9.44639397e-14  9.43728490e-14 -9.45049614e-14
energy -7.899939694762833e+01
charge 0.0000
end
begin
comment 4 atoms, species Al4
lattice      7.4734876071     0.0000000000    -0.0000000000
lattice      0.0000000000     7.4734876071    -0.0000000000
lattice     -0.0000000000    -0.0000000000     7.4734876071
atom      0.0000000000     0.0000000000     0.0000000000   Al  0.0 0.0   -2.54800191e-13 -2.54714490e-13 -2.54791095e-13
atom      0.0000000000     3.7367438035     3.7367438035   Al  0.0 0.0   -2.54826100e-13  2.54755174e-13  2.54881098e-13
atom      3.7367438035     0.0000000000     3.7367438035   Al  0.0 0.0    2.54809907e-13 -2.54726317e-13  2.54857789e-13
atom      3.7367438035     3.7367438035    -0.0000000000   Al  0.0 0.0    2.54806129e-13  2.54739637e-13 -2.54741483e-13
energy -7.900183790865398e+01
charge 0.0000
end
begin
comment 4 atoms, species Al4
lattice      7.5308289442     0.0000000000    -0.0000000000
lattice      0.0000000000     7.5308289442    -0.0000000000
lattice     -0.0000000000    -0.0000000000     7.5308289442
atom      0.0000000000     0.0000000000     0.0000000000   Al  0.0 0.0   -1.31079738e-05 -1.31079738e-05 -1.31079738e-05
atom      0.0000000000     3.7654144721     3.7654144721   Al  0.0 0.0   -1.31380473e-05  1.31230105e-05  1.31230105e-05
atom      3.7654144721     0.0000000000     3.7654144721   Al  0.0 0.0    1.31230105e-05 -1.31380473e-05  1.31230105e-05
atom      3.7654144721     3.7654144721    -0.0000000000   Al  0.0 0.0    1.31230105e-05  1.31230105e-05 -1.31380473e-05
energy -7.900355463569348e+01
charge 0.0000
end
begin
comment 4 atoms, species Al4
lattice      7.5881702814     0.0000000000    -0.0000000000
lattice      0.0000000000     7.5881702814    -0.0000000000
lattice     -0.0000000000    -0.0000000000     7.5881702814
atom      0.0000000000     0.0000000000     0.0000000000   Al  0.0 0.0   -9.62109472e-06 -9.62109472e-06 -9.62109472e-06
atom      0.0000000000     3.7940851407     3.7940851407   Al  0.0 0.0   -9.63034006e-06  9.62571739e-06  9.62571739e-06
atom      3.7940851407     0.0000000000     3.7940851407   Al  0.0 0.0    9.62571739e-06 -9.63034006e-06  9.62571739e-06
atom      3.7940851407     3.7940851407    -0.0000000000   Al  0.0 0.0    9.62571739e-06  9.62571739e-06 -9.63034006e-06
energy -7.900452945199810e+01
charge 0.0000
end
begin
comment 4 atoms, species Al4
lattice      7.6455116185     0.0000000000    -0.0000000000
lattice      0.0000000000     7.6455116185    -0.0000000000
lattice     -0.0000000000    -0.0000000000     7.6455116185
atom      0.0000000000     0.0000000000     0.0000000000   Al  0.0 0.0   -6.36155495e-06 -6.36155495e-06 -6.36155495e-06
atom      0.0000000000     3.8227558092     3.8227558092   Al  0.0 0.0   -6.36370860e-06  6.36263177e-06  6.36263177e-06
atom      3.8227558092     0.0000000000     3.8227558092   Al  0.0 0.0    6.36263177e-06 -6.36370860e-06  6.36263177e-06
atom      3.8227558092     3.8227558092    -0.0000000000   Al  0.0 0.0    6.36263177e-06  6.36263177e-06 -6.36370860e-06
energy -7.900484419002044e+01
charge 0.0000
end
begin
comment 4 atoms, species Al4
lattice      7.7028529556     0.0000000000    -0.0000000000
lattice      0.0000000000     7.7028529556    -0.0000000000
lattice     -0.0000000000    -0.0000000000     7.7028529556
atom      0.0000000000     0.0000000000     0.0000000000   Al  0.0 0.0   -3.51256422e-06 -3.51256422e-06 -3.51256422e-06
atom      0.0000000000     3.8514264778     3.8514264778   Al  0.0 0.0   -3.51288202e-06  3.51272312e-06  3.51272312e-06
atom      3.8514264778     0.0000000000     3.8514264778   Al  0.0 0.0    3.51272312e-06 -3.51288202e-06  3.51272312e-06
atom      3.8514264778     3.8514264778    -0.0000000000   Al  0.0 0.0    3.51272312e-06  3.51272312e-06 -3.51288202e-06
energy -7.900454515407634e+01
charge 0.0000
end
begin
comment 4 atoms, species Al4
lattice      7.7601942928     0.0000000000    -0.0000000000
lattice      0.0000000000     7.7601942928    -0.0000000000
lattice     -0.0000000000    -0.0000000000     7.7601942928
atom      0.0000000000     0.0000000000     0.0000000000   Al  0.0 0.0   -1.34353805e-06 -1.34353805e-06 -1.34353805e-06
atom      0.0000000000     3.8800971464     3.8800971464   Al  0.0 0.0   -1.34355673e-06  1.34354739e-06  1.34354739e-06
atom      3.8800971464     0.0000000000     3.8800971464   Al  0.0 0.0    1.34354739e-06 -1.34355673e-06  1.34354739e-06
atom      3.8800971464     3.8800971464    -0.0000000000   Al  0.0 0.0    1.34354739e-06  1.34354739e-06 -1.34355673e-06
energy -7.900368055661913e+01
charge 0.0000
end
begin
comment 4 atoms, species Al4
lattice      7.8175356299     0.0000000000    -0.0000000000
lattice      0.0000000000     7.8175356299    -0.0000000000
lattice     -0.0000000000    -0.0000000000     7.8175356299
atom      0.0000000000     0.0000000000     0.0000000000   Al  0.0 0.0   -1.47619702e-07 -1.47619702e-07 -1.47619702e-07
atom      0.0000000000     3.9087678150     3.9087678150   Al  0.0 0.0   -1.47619750e-07  1.47619726e-07  1.47619726e-07
atom      3.9087678150     0.0000000000     3.9087678150   Al  0.0 0.0    1.47619726e-07 -1.47619750e-07  1.47619726e-07
atom      3.9087678150     3.9087678150    -0.0000000000   Al  0.0 0.0    1.47619726e-07  1.47619726e-07 -1.47619750e-07
energy -7.900230103883499e+01
charge 0.0000
end
begin
comment 4 atoms, species Al4
lattice      7.8748769670     0.0000000000    -0.0000000000
lattice      0.0000000000     7.8748769670    -0.0000000000
lattice     -0.0000000000    -0.0000000000     7.8748769670
atom      0.0000000000     0.0000000000     0.0000000000   Al  0.0 0.0    1.35090866e-13  1.35130279e-13  1.35159828e-13
atom      0.0000000000     3.9374384835     3.9374384835   Al  0.0 0.0    1.35094105e-13 -1.35130976e-13 -1.35094835e-13
atom      3.9374384835     0.0000000000     3.9374384835   Al  0.0 0.0   -1.35097073e-13  1.35140617e-13 -1.35084414e-13
atom      3.9374384835     3.9374384835    -0.0000000000   Al  0.0 0.0   -1.35096534e-13 -1.35130124e-13  1.35061580e-13
energy -7.900045948214522e+01
charge 0.0000
end
begin
comment 4 atoms, species Al4
lattice      7.4161462699     0.0000000000    -0.0000000000
lattice      0.0000000000     7.4161462699    -0.0000000000
lattice     -0.0000000000    -0.0000000000     7.4161462699
atom      0.0000000000     0.0000000000     0.0000000000   Al  0.0 0.0   -9.44423493e-14 -9.44021875e-14 -9.45446210e-14
atom      0.0000000000     3.7080731350     3.7080731350   Al  0.0 0.0   -9.44493662e-14  9.43811836e-14  9.45434910e-14
atom      3.7080731350     0.0000000000     3.7080731350   Al  0.0 0.0    9.44542240e-14 -9.43842173e-14  9.45274809e-14
atom      3.7080731350     3.7080731350    -0.0000000000   Al  0.0 0.0    9.44639397e-14  9.43728490e-14 -9.45049614e-14
energy -7.899939694762833e+01
charge 0.0000
end
begin
comment 4 atoms, species Al4
lattice      7.4734876071     0.0000000000    -0.0000000000
lattice      0.0000000000     7.4734876071    -0.0000000000
lattice     -0.0000000000    -0.0000000000     7.4734876071
atom      0.0000000000     0.0000000000     0.0000000000   Al  0.0 0.0   -2.54800191e-13 -2.54714490e-13 -2.54791095e-13
atom      0.0000000000     3.7367438035     3.7367438035   Al  0.0 0.0   -2.54826100e-13  2.54755174e-13  2.54881098e-13
atom      3.7367438035     0.0000000000     3.7367438035   Al  0.0 0.0    2.54809907e-13 -2.54726317e-13  2.54857789e-13
atom      3.7367438035     3.7367438035    -0.0000000000   Al  0.0 0.0    2.54806129e-13  2.54739637e-13 -2.54741483e-13
energy -7.900183790865398e+01
charge 0.0000
end
begin
comment 4 atoms, species Al4
lattice      7.5308289442     0.0000000000    -0.0000000000
lattice      0.0000000000     7.5308289442    -0.0000000000
lattice     -0.0000000000    -0.0000000000     7.5308289442
atom      0.0000000000     0.0000000000     0.0000000000   Al  0.0 0.0   -1.31079738e-05 -1.31079738e-05 -1.31079738e-05
atom      0.0000000000     3.7654144721     3.7654144721   Al  0.0 0.0   -1.31380473e-05  1.31230105e-05  1.31230105e-05
atom      3.7654144721     0.0000000000     3.7654144721   Al  0.0 0.0    1.31230105e-05 -1.31380473e-05  1.31230105e-05
atom      3.7654144721     3.7654144721    -0.0000000000   Al  0.0 0.0    1.31230105e-05  1.31230105e-05 -1.31380473e-05
energy -7.900355463569348e+01
charge 0.0000
end
begin
comment 4 atoms, species Al4
lattice      7.5881702814     0.0000000000    -0.0000000000
lattice      0.0000000000     7.5881702814    -0.0000000000
lattice     -0.0000000000    -0.0000000000     7.5881702814
atom      0.0000000000     0.0000000000     0.0000000000   Al  0.0 0.0   -9.62109472e-06 -9.62109472e-06 -9.62109472e-06
atom      0.0000000000     3.7940851407     3.7940851407   Al  0.0 0.0   -9.63034006e-06  9.62571739e-06  9.62571739e-06
atom      3.7940851407     0.0000000000     3.7940851407   Al  0.0 0.0    9.62571739e-06 -9.63034006e-06  9.62571739e-06
atom      3.7940851407     3.7940851407    -0.0000000000   Al  0.0 0.0    9.62571739e-06  9.62571739e-06 -9.63034006e-06
energy -7.900452945199810e+01
charge 0.0000
end
begin
comment 4 atoms, species Al4
lattice      7.6455116185     0.0000000000    -0.0000000000
lattice      0.0000000000     7.6455116185    -0.0000000000
lattice     -0.0000000000    -0.0000000000     7.6455116185
atom      0.0000000000     0.0000000000     0.0000000000   Al  0.0 0.0   -6.36155495e-06 -6.36155495e-06 -6.36155495e-06
atom      0.0000000000     3.8227558092     3.8227558092   Al  0.0 0.0   -6.36370860e-06  6.36263177e-06  6.36263177e-06
atom      3.8227558092     0.0000000000     3.8227558092   Al  0.0 0.0    6.36263177e-06 -6.36370860e-06  6.36263177e-06
atom      3.8227558092     3.8227558092    -0.0000000000   Al  0.0 0.0    6.36263177e-06  6.36263177e-06 -6.36370860e-06
energy -7.900484419002044e+01
charge 0.0000
end
begin
comment 4 atoms, species Al4
lattice      7.7028529556     0.0000000000    -0.0000000000
lattice      0.0000000000     7.7028529556    -0.0000000000
lattice     -0.0000000000    -0.0000000000     7.7028529556
atom      0.0000000000     0.0000000000     0.0000000000   Al  0.0 0.0   -3.51256422e-06 -3.51256422e-06 -3.51256422e-06
atom      0.0000000000     3.8514264778     3.8514264778   Al  0.0 0.0   -3.51288202e-06  3.51272312e-06  3.51272312e-06
atom      3.8514264778     0.0000000000     3.8514264778   Al  0.0 0.0    3.51272312e-06 -3.51288202e-06  3.51272312e-06
atom      3.8514264778     3.8514264778    -0.0000000000   Al  0.0 0.0    3.51272312e-06  3.51272312e-06 -3.51288202e-06
energy -7.900454515407634e+01
charge 0.0000
end
begin
comment 4 atoms, species Al4
lattice      7.7601942928     0.0000000000    -0.0000000000
lattice      0.0000000000     7.7601942928    -0.0000000000
lattice     -0.0000000000    -0.0000000000     7.7601942928
atom      0.0000000000     0.0000000000     0.0000000000   Al  0.0 0.0   -1.34353805e-06 -1.34353805e-06 -1.34353805e-06
atom      0.0000000000     3.8800971464     3.8800971464   Al  0.0 0.0   -1.34355673e-06  1.34354739e-06  1.34354739e-06
atom      3.8800971464     0.0000000000     3.8800971464   Al  0.0 0.0    1.34354739e-06 -1.34355673e-06  1.34354739e-06
atom      3.8800971464     3.8800971464    -0.0000000000   Al  0.0 0.0    1.34354739e-06  1.34354739e-06 -1.34355673e-06
energy -7.900368055661913e+01
charge 0.0000
end
begin
comment 4 atoms, species Al4
lattice      7.8175356299     0.0000000000    -0.0000000000
lattice      0.0000000000     7.8175356299    -0.0000000000
lattice     -0.0000000000    -0.0000000000     7.8175356299
atom      0.0000000000     0.0000000000     0.0000000000   Al  0.0 0.0   -1.47619702e-07 -1.47619702e-07 -1.47619702e-07
atom      0.0000000000     3.9087678150     3.9087678150   Al  0.0 0.0   -1.47619750e-07  1.47619726e-07  1.47619726e-07
atom      3.9087678150     0.0000000000     3.9087678150   Al  0.0 0.0    1.47619726e-07 -1.47619750e-07  1.47619726e-07
atom      3.9087678150     3.9087678150    -0.0000000000   Al  0.0 0.0    1.47619726e-07  1.47619726e-07 -1.47619750e-07
energy -7.900230103883499e+01
charge 0.0000
end
begin
comment 4 atoms, species Al4
lattice      7.8748769670     0.0000000000    -0.0000000000
lattice      0.0000000000     7.8748769670    -0.0000000000
lattice     -0.0000000000    -0.0000000000     7.8748769670
atom      0.0000000000     0.0000000000     0.0000000000   Al  0.0 0.0    1.35090866e-13  1.35130279e-13  1.35159828e-13
atom      0.0000000000     3.9374384835     3.9374384835   Al  0.0 0.0    1.35094105e-13 -1.35130976e-13 -1.35094835e-13
atom      3.9374384835     0.0000000000     3.9374384835   Al  0.0 0.0   -1.35097073e-13  1.35140617e-13 -1.35084414e-13
atom      3.9374384835     3.9374384835    -0.0000000000   Al  0.0 0.0   -1.35096534e-13 -1.35130124e-13  1.35061580e-13
energy -7.900045948214522e+01
charge 0.0000
end
begin
comment 4 atoms, species Al4
lattice      7.4161462699     0.0000000000    -0.0000000000
lattice      0.0000000000     7.4161462699    -0.0000000000
lattice     -0.0000000000    -0.0000000000     7.4161462699
atom      0.0000000000     0.0000000000     0.0000000000   Al  0.0 0.0   -9.44423493e-14 -9.44021875e-14 -9.45446210e-14
atom      0.0000000000     3.7080731350     3.7080731350   Al  0.0 0.0   -9.44493662e-14  9.43811836e-14  9.45434910e-14
atom      3.7080731350     0.0000000000     3.7080731350   Al  0.0 0.0    9.44542240e-14 -9.43842173e-14  9.45274809e-14
atom      3.7080731350     3.7080731350    -0.0000000000   Al  0.0 0.0    9.44639397e-14  9.43728490e-14 -9.45049614e-14
energy -7.899939694762833e+01
charge 0.0000
end
begin
comment 4 atoms, species Al4
lattice      7.4734876071     0.0000000000    -0.0000000000
lattice      0.0000000000     7.4734876071    -0.0000000000
lattice     -0.0000000000    -0.0000000000     7.4734876071
atom      0.0000000000     0.0000000000     0.0000000000   Al  0.0 0.0   -2.54800191e-13 -2.54714490e-13 -2.54791095e-13
atom      0.0000000000     3.7367438035     3.7367438035   Al  0.0 0.0   -2.54826100e-13  2.54755174e-13  2.54881098e-13
atom      3.7367438035     0.0000000000     3.7367438035   Al  0.0 0.0    2.54809907e-13 -2.54726317e-13  2.54857789e-13
atom      3.7367438035     3.7367438035    -0.0000000000   Al  0.0 0.0    2.54806129e-13  2.54739637e-13 -2.54741483e-13
energy -7.900183790865398e+01
charge 0.0000
end
begin
comment 4 atoms, species Al4
lattice      7.5308289442     0.0000000000    -0.0000000000
lattice      0.0000000000     7.5308289442    -0.0000000000
lattice     -0.0000000000    -0.0000000000     7.5308289442
atom      0.0000000000     0.0000000000     0.0000000000   Al  0.0 0.0   -1.31079738e-05 -1.31079738e-05 -1.31079738e-05
atom      0.0000000000     3.7654144721     3.7654144721   Al  0.0 0.0   -1.31380473e-05  1.31230105e-05  1.31230105e-05
atom      3.7654144721     0.0000000000     3.7654144721   Al  0.0 0.0    1.31230105e-05 -1.31380473e-05  1.31230105e-05
atom      3.7654144721     3.7654144721    -0.0000000000   Al  0.0 0.0    1.31230105e-05  1.31230105e-05 -1.31380473e-05
energy -7.900355463569348e+01
charge 0.0000
end
begin
comment 4 atoms, species Al4
lattice      7.5881702814     0.0000000000    -0.0000000000
lattice      0.0000000000     7.5881702814    -0.0000000000
lattice     -0.0000000000    -0.0000000000     7.5881702814
atom      0.0000000000     0.0000000000     0.0000000000   Al  0.0 0.0   -9.62109472e-06 -9.62109472e-06 -9.62109472e-06
atom      0.0000000000     3.7940851407     3.7940851407   Al  0.0 0.0   -9.63034006e-06  9.62571739e-06  9.62571739e-06
atom      3.7940851407     0.0000000000     3.7940851407   Al  0.0 0.0    9.62571739e-06 -9.63034006e-06  9.62571739e-06
atom      3.7940851407     3.7940851407    -0.0000000000   Al  0.0 0.0    9.62571739e-06  9.62571739e-06 -9.63034006e-06
energy -7.900452945199810e+01
charge 0.0000
end
begin
comment 4 atoms, species Al4
lattice      7.6455116185     0.0000000000    -0.0000000000
lattice      0.0000000000     7.6455116185    -0.0000000000
lattice     -0.0000000000    -0.0000000000     7.6455116185
atom      0.0000000000     0.0000000000     0.0000000000   Al  0.0 0.0   -6.36155495e-06 -6.36155495e-06 -6.36155495e-06
atom      0.0000000000     3.8227558092     3.8227558092   Al  0.0 0.0   -6.36370860e-06  6.36263177e-06  6.36263177e-06
atom      3.8227558092     0.0000000000     3.8227558092   Al  0.0 0.0    6.36263177e-06 -6.36370860e-06  6.36263177e-06
atom      3.8227558092     3.8227558092    -0.0000000000   Al  0.0 0.0    6.36263177e-06  6.36263177e-06 -6.36370860e-06
energy -7.900484419002044e+01
charge 0.0000
end
begin
comment 4 atoms, species Al4
lattice      7.7028529556     0.0000000000    -0.0000000000
lattice      0.0000000000     7.7028529556    -0.0000000000
lattice     -0.0000000000    -0.0000000000     7.7028529556
atom      0.0000000000     0.0000000000     0.0000000000   Al  0.0 0.0   -3.51256422e-06 -3.51256422e-06 -3.51256422e-06
atom      0.0000000000     3.8514264778     3.8514264778   Al  0.0 0.0   -3.51288202e-06  3.51272312e-06  3.51272312e-06
atom      3.8514264778     0.0000000000     3.8514264778   Al  0.0 0.0    3.51272312e-06 -3.51288202e-06  3.51272312e-06
atom      3.8514264778     3.8514264778    -0.0000000000   Al  0.0 0.0    3.51272312e-06  3.51272312e-06 -3.51288202e-06
energy -7.900454515407634e+01
charge 0.0000
end
begin
comment 4 atoms, species Al4
lattice      7.7601942928     0.0000000000    -0.0000000000
lattice      0.0000000000     7.7601942928    -0.0000000000
lattice     -0.0000000000    -0.0000000000     7.7601942928
atom      0.0000000000     0.0000000000     0.0000000000   Al  0.0 0.0   -1.34353805e-06 -1.34353805e-06 -1.34353805e-06
atom      0.0000000000     3.8800971464     3.8800971464   Al  0.0 0.0   -1.34355673e-06  1.34354739e-06  1.34354739e-06
atom      3.8800971464     0.0000000000     3.8800971464   Al  0.0 0.0    1.34354739e-06 -1.34355673e-06  1.34354739e-06
atom      3.8800971464     3.8800971464    -0.0000000000   Al  0.0 0.0    1.34354739e-06  1.34354739e-06 -1.34355673e-06
energy -7.900368055661913e+01
charge 0.0000
end
begin
comment 4 atoms, species Al4
lattice      7.8175356299     0.0000000000    -0.0000000000
lattice      0.0000000000     7.8175356299    -0.0000000000
lattice     -0.0000000000    -0.0000000000     7.8175356299
atom      0.0000000000     0.0000000000     0.0000000000   Al  0.0 0.0   -1.47619702e-07 -1.47619702e-07 -1.47619702e-07
atom      0.0000000000     3.9087678150     3.9087678150   Al  0.0 0.0   -1.47619750e-07  1.47619726e-07  1.47619726e-07
atom      3.9087678150     0.0000000000     3.9087678150   Al  0.0 0.0    1.47619726e-07 -1.47619750e-07  1.47619726e-07
atom      3.9087678150     3.9087678150    -0.0000000000   Al  0.0 0.0    1.47619726e-07  1.47619726e-07 -1.47619750e-07
energy -7.900230103883499e+01
charge 0.0000
end
begin
comment 4 atoms, species Al4
lattice      7.8748769670     0.0000000000    -0.0000000000
lattice      0.0000000000     7.8748769670    -0.0000000000
lattice     -0.0000000000    -0.0000000000     7.8748769670
atom      0.0000000000     0.0000000000     0.0000000000   Al  0.0 0.0    1.35090866e-13  1.35130279e-13  1.35159828e-13
atom      0.0000000000     3.9374384835     3.9374384835   Al  0.0 0.0    1.35094105e-13 -1.35130976e-13 -1.35094835e-13
atom      3.9374384835     0.0000000000     3.9374384835   Al  0.0 0.0   -1.35097073e-13  1.35140617e-13 -1.35084414e-13
atom      3.9374384835     3.9374384835    -0.0000000000   Al  0.0 0.0   -1.35096534e-13 -1.35130124e-13  1.35061580e-13
energy -7.900045948214522e+01
charge 0.0000
end
begin
comment 4 atoms, species Al4
lattice      7.4161462699     0.0000000000    -0.0000000000
lattice      0.0000000000     7.4161462699    -0.0000000000
lattice     -0.0000000000    -0.0000000000     7.4161462699
atom      0.0000000000     0.0000000000     0.0000000000   Al  0.0 0.0   -9.44423493e-14 -9.44021875e-14 -9.45446210e-14
atom      0.0000000000     3.7080731350     3.7080731350   Al  0.0 0.0   -9.44493662e-14  9.43811836e-14  9.45434910e-14
atom      3.7080731350     0.0000000000     3.7080731350   Al  0.0 0.0    9.44542240e-14 -9.43842173e-14  9.45274809e-14
atom      3.7080731350     3.7080731350    -0.0000000000   Al  0.0 0.0    9.44639397e-14  9.43728490e-14 -9.45049614e-14
energy -7.899939694762833e+01
charge 0.0000
end
begin
comment 4 atoms, species Al4
lattice      7.4734876071     0.0000000000    -0.0000000000
lattice      0.0000000000     7.4734876071    -0.0000000000
lattice     -0.0000000000    -0.0000000000     7.4734876071
atom      0.0000000000     0.0000000000     0.0000000000   Al  0.0 0.0   -2.54800191e-13 -2.54714490e-13 -2.54791095e-13
atom      0.0000000000     3.7367438035     3.7367438035   Al  0.0 0.0   -2.54826100e-13  2.54755174e-13  2.54881098e-13
atom      3.7367438035     0.0000000000     3.7367438035   Al  0.0 0.0    2.54809907e-13 -2.54726317e-13  2.54857789e-13
atom      3.7367438035     3.7367438035    -0.0000000000   Al  0.0 0.0    2.54806129e-13  2.54739637e-13 -2.54741483e-13
energy -7.900183790865398e+01
charge 0.0000
end
begin
comment 4 atoms, species Al4
lattice      7.5308289442     0.0000000000    -0.0000000000
lattice      0.0000000000     7.5308289442    -0.0000000000
lattice     -0.0000000000    -0.0000000000     7.5308289442
atom      0.0000000000     0.0000000000     0.0000000000   Al  0.0 0.0   -1.31079738e-05 -1.31079738e-05 -1.31079738e-05
atom      0.0000000000     3.7654144721     3.7654144721   Al  0.0 0.0   -1.31380473e-05  1.31230105e-05  1.31230105e-05
atom      3.7654144721     0.0000000000     3.7654144721   Al  0.0 0.0    1.31230105e-05 -1.31380473e-05  1.31230105e-05
atom      3.7654144721     3.7654144721    -0.0000000000   Al  0.0 0.0    1.31230105e-05  1.31230105e-05 -1.31380473e-05
energy -7.900355463569348e+01
charge 0.0000
end
begin
comment 4 atoms, species Al4
lattice      7.5881702814     0.0000000000    -0.0000000000
lattice      0.0000000000     7.5881702814    -0.0000000000
lattice     -0.0000000000    -0.0000000000     7.5881702814
atom      0.0000000000     0.0000000000     0.0000000000   Al  0.0 0.0   -9.62109472e-06 -9.62109472e-06 -9.62109472e-06
atom      0.0000000000     3.7940851407     3.7940851407   Al  0.0 0.0   -9.63034006e-06  9.62571739e-06  9.62571739e-06
atom      3.7940851407     0.0000000000     3.7940851407   Al  0.0 0.0    9.62571739e-06 -9.63034006e-06  9.62571739e-06
atom      3.7940851407     3.7940851407    -0.0000000000   Al  0.0 0.0    9.62571739e-06  9.62571739e-06 -9.63034006e-06
energy -7.900452945199810e+01
charge 0.0000
end
begin
comment 4 atoms, species Al4
lattice      7.6455116185     0.0000000000    -0.0000000000
lattice      0.0000000000     7.6455116185    -0.0000000000
lattice     -0.0000000000    -0.0000000000     7.6455116185
atom      0.0000000000     0.0000000000     0.0000000000   Al  0.0 0.0   -6.36155495e-06 -6.36155495e-06 -6.36155495e-06
atom      0.0000000000     3.8227558092     3.8227558092   Al  0.0 0.0   -6.36370860e-06  6.36263177e-06  6.36263177e-06
atom      3.8227558092     0.0000000000     3.8227558092   Al  0.0 0.0    6.36263177e-06 -6.36370860e-06  6.36263177e-06
atom      3.8227558092     3.8227558092    -0.0000000000   Al  0.0 0.0    6.36263177e-06  6.36263177e-06 -6.36370860e-06
energy -7.900484419002044e+01
charge 0.0000
end
begin
comment 4 atoms, species Al4
lattice      7.7028529556     0.0000000000    -0.0000000000
lattice      0.0000000000     7.7028529556    -0.0000000000
lattice     -0.0000000000    -0.0000000000     7.7028529556
atom      0.0000000000     0.0000000000     0.0000000000   Al  0.0 0.0   -3.51256422e-06 -3.51256422e-06 -3.51256422e-06
atom      0.0000000000     3.8514264778     3.8514264778   Al  0.0 0.0   -3.51288202e-06  3.51272312e-06  3.51272312e-06
atom      3.8514264778     0.0000000000     3.8514264778   Al  0.0 0.0    3.51272312e-06 -3.51288202e-06  3.51272312e-06
atom      3.8514264778     3.8514264778    -0.0000000000   Al  0.0 0.0    3.51272312e-06  3.51272312e-06 -3.51288202e-06
energy -7.900454515407634e+01
charge 0.0000
end
begin
comment 4 atoms, species Al4
lattice      7.7601942928     0.0000000000    -0.0000000000
lattice      0.0000000000     7.7601942928    -0.0000000000
lattice     -0.0000000000    -0.0000000000     7.7601942928
atom      0.0000000000     0.0000000000     0.0000000000   Al  0.0 0.0   -1.34353805e-06 -1.34353805e-06 -1.34353805e-06
atom      0.0000000000     3.8800971464     3.8800971464   Al  0.0 0.0   -1.34355673e-06  1.34354739e-06  1.34354739e-06
atom      3.8800971464     0.0000000000     3.8800971464   Al  0.0 0.0    1.34354739e-06 -1.34355673e-06  1.34354739e-06
atom      3.8800971464     3.8800971464    -0.0000000000   Al  0.0 0.0    1.34354739e-06  1.34354739e-06 -1.34355673e-06
energy -7.900368055661913e+01
charge 0.0000
end
begin
comment 4 atoms, species Al4
lattice      7.8175356299     0.0000000000    -0.0000000000
lattice      0.0000000000     7.8175356299    -0.0000000000
lattice     -0.0000000000    -0.0000000000     7.8175356299
atom      0.0000000000     0.0000000000     0.0000000000   Al  0.0 0.0   -1.47619702e-07 -1.47619702e-07 -1.47619702e-07
atom      0.0000000000     3.9087678150     3.9087678150   Al  0.0 0.0   -1.47619750e-07  1.47619726e-07  1.47619726e-07
atom      3.9087678150     0.0000000000     3.9087678150   Al  0.0 0.0    1.47619726e-07 -1.47619750e-07  1.47619726e-07
atom      3.9087678150     3.9087678150    -0.0000000000   Al  0.0 0.0    1.47619726e-07  1.47619726e-07 -1.47619750e-07
energy -7.900230103883499e+01
charge 0.0000
end
begin
comment 4 atoms, species Al4
lattice      7.8748769670     0.0000000000    -0.0000000000
lattice      0.0000000000     7.8748769670    -0.0000000000
lattice     -0.0000000000    -0.0000000000     7.8748769670
atom      0.0000000000     0.0000000000     0.0000000000   Al  0.0 0.0    1.35090866e-13  1.35130279e-13  1.35159828e-13
atom      0.0000000000     3.9374384835     3.9374384835   Al  0.0 0.0    1.35094105e-13 -1.35130976e-13 -1.35094835e-13
atom      3.9374384835     0.0000000000     3.9374384835   Al  0.0 0.0   -1.35097073e-13  1.35140617e-13 -1.35084414e-13
atom      3.9374384835     3.9374384835    -0.0000000000   Al  0.0 0.0   -1.35096534e-13 -1.35130124e-13  1.35061580e-13
energy -7.900045948214522e+01
charge 0.0000
end
begin
comment 4 atoms, species Al4
lattice      7.4166524369     0.0000000000    -0.0000000000
lattice      0.0000000000     7.4166524369    -0.0000000000
lattice     -0.0000000000    -0.0000000000     7.4166524369
atom      0.0000000000     0.0000000000     0.0000000000   Al  0.0 0.0    9.24927361e-14  9.24838902e-14  9.25185406e-14
atom     -0.0000000000     3.7083262185     3.7083262185   Al  0.0 0.0    9.24857192e-14 -9.24880095e-14 -9.24686556e-14
atom      3.7083262185    -0.0000000000     3.7083262185   Al  0.0 0.0   -9.24943554e-14  9.24771011e-14 -9.24987165e-14
atom      3.7083262185     3.7083262185    -0.0000000000   Al  0.0 0.0   -9.24959747e-14 -9.24926618e-14  9.24866848e-14
energy -7.899942188719683e+01
charge 0.0000
end
begin
comment 4 atoms, species Al4
lattice      7.4739976877     0.0000000000    -0.0000000000
lattice      0.0000000000     7.4739976877    -0.0000000000
lattice     -0.0000000000    -0.0000000000     7.4739976877
atom      0.0000000000     0.0000000000     0.0000000000   Al  0.0 0.0   -2.91313877e-14 -2.91128702e-14 -2.90843428e-14
atom     -0.0000000000     3.7369988439     3.7369988439   Al  0.0 0.0   -2.91475805e-14  2.91322930e-14  2.90707203e-14
atom      3.7369988439    -0.0000000000     3.7369988439   Al  0.0 0.0    2.91386744e-14 -2.91461935e-14  2.90446616e-14
atom      3.7369988439     3.7369988439    -0.0000000000   Al  0.0 0.0    2.91411034e-14  2.91506678e-14 -2.91146069e-14
energy -7.900185620364144e+01
charge 0.0000
end
begin
comment 4 atoms, species Al4
lattice      7.5313429385     0.0000000000    -0.0000000000
lattice      0.0000000000     7.5313429385    -0.0000000000
lattice     -0.0000000000    -0.0000000000     7.5313429385
atom      0.0000000000     0.0000000000     0.0000000000   Al  0.0 0.0   -1.30689663e-13 -1.30705984e-13 -1.30722530e-13
atom     -0.0000000000     3.7656714693     3.7656714693   Al  0.0 0.0   -1.30715841e-13  1.30748772e-13  1.30700518e-13
atom      3.7656714693    -0.0000000000     3.7656714693   Al  0.0 0.0    1.30707205e-13 -1.30726571e-13  1.30681246e-13
atom      3.7656714693     3.7656714693    -0.0000000000   Al  0.0 0.0    1.30702078e-13  1.30712339e-13 -1.30672594e-13
energy -7.900354231599901e+01
charge 0.0000
end
begin
comment 4 atoms, species Al4
lattice      7.5886881893     0.0000000000    -0.0000000000
lattice      0.0000000000     7.5886881893    -0.0000000000
lattice     -0.0000000000    -0.0000000000     7.5886881893
atom      0.0000000000     0.0000000000     0.0000000000   Al  0.0 0.0   -2.13700435e-13 -2.13716620e-13 -2.13759258e-13
atom     -0.0000000000     3.7943440947     3.7943440947   Al  0.0 0.0   -2.13718787e-13  2.13715796e-13  2.13683638e-13
atom      3.7943440947    -0.0000000000     3.7943440947   Al  0.0 0.0    2.13706642e-13 -2.13713998e-13  2.13667798e-13
atom      3.7943440947     3.7943440947    -0.0000000000   Al  0.0 0.0    2.13710690e-13  2.13728466e-13 -2.13743423e-13
energy -7.900452121960345e+01
charge 0.0000
end
begin
comment 4 atoms, species Al4
lattice      7.6460334401     0.0000000000    -0.0000000000