begin
comment 4 atoms, species Al4
lattice      7.5568642819     0.0000000000     0.0000000000
lattice      0.0000000000     7.5568642819     0.0000000000
lattice      0.0000000000     0.0000000000     7.5568642819
atom      0.0000000000     0.0000000000     0.0000000000   Al  0.0 0.0   -1.03604236e-14 -1.03247014e-14 -1.03644336e-14
atom     -0.0000000000     3.7784321410     3.7784321410   Al  0.0 0.0   -1.03550260e-14  1.03040139e-14  1.04203685e-14
atom      3.7784321410    -0.0000000000     3.7784321410   Al  0.0 0.0    1.03469296e-14 -1.03309087e-14  1.03876616e-14
atom      3.7784321410     3.7784321410     0.0000000000   Al  0.0 0.0    1.03609633e-14  1.03564985e-14 -1.04231986e-14
energy -7.900406276166785e+01
charge 0.0000
end
begin
comment 4 atoms, species Al4
lattice      7.6331962444     0.0000000000     0.0000000000
lattice      0.0000000000     7.6331962444     0.0000000000
lattice      0.0000000000     0.0000000000     7.6331962444
atom      0.0000000000     0.0000000000     0.0000000000   Al  0.0 0.0    1.10619362e-13  1.10665894e-13  1.10667623e-13
atom     -0.0000000000     3.8165981222     3.8165981222   Al  0.0 0.0    1.10628403e-13 -1.10667218e-13 -1.10609052e-13
atom      3.8165981222    -0.0000000000     3.8165981222   Al  0.0 0.0   -1.10606003e-13  1.10629810e-13 -1.10636724e-13
atom      3.8165981222     3.8165981222     0.0000000000   Al  0.0 0.0   -1.10634610e-13 -1.10594060e-13  1.10687087e-13
energy -7.900482169101606e+01
charge 0.0000
end
begin
comment 4 atoms, species Al4
lattice      7.7095282068     0.0000000000     0.0000000000
lattice      0.0000000000     7.7095282068     0.0000000000
lattice      0.0000000000     0.0000000000     7.7095282068
atom      0.0000000000     0.0000000000     0.0000000000   Al  0.0 0.0   -1.82354682e-13 -1.82348466e-13 -1.82323028e-13
atom     -0.0000000000     3.8547641034     3.8547641034   Al  0.0 0.0   -1.82356031e-13  1.82361330e-13  1.82403165e-13
atom      3.8547641034    -0.0000000000     3.8547641034   Al  0.0 0.0    1.82360349e-13 -1.82351386e-13  1.82386938e-13
atom      3.8547641034     3.8547641034     0.0000000000   Al  0.0 0.0    1.82354682e-13  1.82354067e-13 -1.82377393e-13
energy -7.900447030555391e+01
charge 0.0000
end
begin
comment 4 atoms, species Al4
lattice      7.6331962444     0.0076331962     0.0000000000
lattice      0.0076331962     7.6331962444     0.0000000000
lattice      0.0000000000     0.0000000000     7.6332038776
atom      0.0000000000     0.0000000000     0.0000000000   Al  0.0 0.0   -5.26194190e-14 -1.83710180e-13  2.29266492e-15
atom      0.0038165981     3.8165981222     3.8166019388   Al  0.0 0.0   -5.62052276e-14  1.84587312e-13 -2.30150150e-15
atom      3.8165981222     0.0038165981     3.8166019388   Al  0.0 0.0    5.62007040e-14 -1.84651653e-13 -2.33422867e-15
atom      3.8204147203     3.8204147203     0.0000000000   Al  0.0 0.0    5.26158525e-14  1.83768287e-13  2.25494036e-15
energy -7.900482057712323e+01
charge 0.0000
end
begin
comment 4 atoms, species Al4
lattice      7.5568642819     0.0000000000     0.0000000000
lattice      0.0000000000     7.5568642819     0.0000000000
lattice      0.0000000000     0.0000000000     7.5568642819
atom      0.0000000000     0.0000000000     0.0000000000   Al  0.0 0.0   -1.03569151e-14 -1.03412442e-14 -1.03379091e-14
atom     -0.0000000000     3.7784321410     3.7784321410   Al  0.0 0.0   -1.03677103e-14  1.03617508e-14  1.04394489e-14
atom      3.7784321410    -0.0000000000     3.7784321410   Al  0.0 0.0    1.03512477e-14 -1.03440441e-14  1.03098411e-14
atom      3.7784321410     3.7784321410    -0.0000000000   Al  0.0 0.0    1.03547561e-14  1.03512635e-14 -1.03788531e-14
energy -7.900406276166785e+01
charge 0.0000
end
begin
comment 4 atoms, species Al4
lattice      7.6331962444     0.0000000000     0.0000000000
lattice      0.0000000000     7.6331962444     0.0000000000
lattice      0.0000000000     0.0000000000     7.6331962444
atom      0.0000000000     0.0000000000     0.0000000000   Al  0.0 0.0    1.10614369e-13  1.10647816e-13  1.10710836e-13
atom     -0.0000000000     3.8165981222     3.8165981222   Al  0.0 0.0    1.10633800e-13 -1.10615210e-13 -1.10612190e-13
atom      3.8165981222    -0.0000000000     3.8165981222   Al  0.0 0.0   -1.10615988e-13  1.10601561e-13 -1.10693717e-13
atom      3.8165981222     3.8165981222    -0.0000000000   Al  0.0 0.0   -1.10632991e-13 -1.10597180e-13  1.10716386e-13
energy -7.900482169101606e+01
charge 0.0000
end
begin
comment 4 atoms, species Al4
lattice      7.7095282068     0.0000000000     0.0000000000
lattice      0.0000000000     7.7095282068     0.0000000000
lattice      0.0000000000     0.0000000000     7.7095282068
atom      0.0000000000     0.0000000000     0.0000000000   Al  0.0 0.0   -1.82356571e-13 -1.82346769e-13 -1.82306620e-13
atom     -0.0000000000     3.8547641034     3.8547641034   Al  0.0 0.0   -1.82362104e-13  1.82347187e-13  1.82403222e-13
atom      3.8547641034    -0.0000000000     3.8547641034   Al  0.0 0.0    1.82358460e-13 -1.82364066e-13  1.82345765e-13
atom      3.8547641034     3.8547641034    -0.0000000000   Al  0.0 0.0    1.82355222e-13  1.82357399e-13 -1.82372914e-13
energy -7.900447030555391e+01
charge 0.0000
end
begin
comment 4 atoms, species Al4
lattice      7.6331962444     0.0000000000     0.0000000000
lattice      0.0000000000     7.6331962444     0.0076331962
lattice      0.0000000000     0.0076331962     7.6331962444
atom      0.0000000000     0.0000000000     0.0000000000   Al  0.0 0.0    1.10723535e-13 -5.26169748e-14 -1.83741837e-13
atom     -0.0000000000     3.8204147203     3.8204147203   Al  0.0 0.0    1.10716653e-13  5.25812270e-14  1.83728560e-13
atom      3.8165981222     0.0038165981     3.8165981222   Al  0.0 0.0   -1.10721511e-13 -5.61109988e-14  1.84551559e-13
atom      3.8165981222     3.8165981222     0.0038165981   Al  0.0 0.0   -1.10728258e-13  5.61681063e-14 -1.84655622e-13
energy -7.900482057095303e+01
charge 0.0000
end
