begin
comment uuid: 416f2628-81cf-4292-9552-4b552d87fe5c
lattice     27.5671100503     0.0000020346    -7.8045969018
lattice      0.0000015289    23.0023472878    -0.0000007315
lattice     -0.2222180167    -0.0000008216    25.2118256027
atom     -0.0709546978    -0.0000002865    12.4506174262   Al  0.0 0.0   -4.88612246e-13  3.04305896e-12  1.66531444e-12
atom      2.0128118610     3.8337243268     3.6072368445   Mg  0.0 0.0    4.63590226e-07  2.81303951e-08 -1.05968557e-06
atom      4.1733275492     3.8337242221    10.1445355212   Mg  0.0 0.0   -1.70714498e-07  1.19885464e-09  9.28205383e-08
atom      9.5794273442     0.0000011820    -1.7515120428   Mg  0.0 0.0    1.70710126e-07 -1.20007221e-09 -9.28188989e-08
atom     11.7399430329     0.0000010773     4.7857866336   Mg  0.0 0.0   -4.63598262e-07 -2.81311832e-08  1.05968838e-06
atom      1.5082406996    -0.0000010064     7.7760093756   Si  0.0 0.0   -3.86981136e-07  2.43144023e-08 -1.58020683e-07
atom      5.0443414602     0.0000008638     1.1297559045   Si  0.0 0.0    4.95468355e-07 -3.38900080e-08  3.38814907e-08
atom      5.8554810230     0.0000005168     5.9155359796   Al  0.0 0.0   -1.61781723e-06 -2.40274436e-08 -6.14464817e-07
atom      7.8972738709     3.8337248875     2.4774874986   Al  0.0 0.0    1.61780895e-06  2.40256382e-08  6.14466646e-07
atom      8.7084134335     3.8337245403     7.2632675738   Si  0.0 0.0   -4.95475581e-07  3.38889803e-08 -3.38800181e-08
atom     12.2445141943     3.8337264106     0.6170141030   Si  0.0 0.0    3.86973959e-07 -2.43143428e-08  1.58020905e-07
atom     13.7126005826     3.8337252788     8.5483188536   Al  0.0 0.0   -3.84043532e-12  3.17065560e-12 -2.23842375e-13
atom     15.7963666314     0.0000007963    -0.2950614842   Mg  0.0 0.0    4.63590988e-07  2.81299466e-08 -1.05968676e-06
atom     17.9568823197     0.0000006915     6.2422371925   Mg  0.0 0.0   -1.70715406e-07  1.19891518e-09  9.28189823e-08
atom     23.3629826243     3.8337267472    -5.6538106155   Mg  0.0 0.0    1.70709015e-07 -1.19926006e-09 -9.28200667e-08
atom     25.5234983128     3.8337266424     0.8834880609   Mg  0.0 0.0   -4.63597263e-07 -2.81300431e-08  1.05968805e-06
atom     15.2917959797     3.8337245589     3.8737108028   Si  0.0 0.0   -3.86981490e-07  2.43131948e-08 -1.58021191e-07
atom     18.8278967399     3.8337264291    -2.7725426685   Si  0.0 0.0    4.95470931e-07 -3.38902666e-08  3.38830476e-08
atom     19.6390363028     3.8337260820     2.0132374065   Al  0.0 0.0   -1.61781524e-06 -2.40274366e-08 -6.14463023e-07
atom     21.6808286411     0.0000013568    -1.4248108306   Al  0.0 0.0    1.61781067e-06  2.40261683e-08  6.14468736e-07
atom     22.4919682036     0.0000010096     3.3609692446   Si  0.0 0.0   -4.95473260e-07  3.38899203e-08 -3.38782542e-08
atom     26.0280689647     0.0000028798    -3.2852842260   Si  0.0 0.0    3.86973319e-07 -2.43142768e-08  1.58021428e-07
atom     -0.1820637063    -0.0000006973    25.0565302279   Al  0.0 0.0    1.44571899e-13  3.07333308e-12 -1.42928653e-12
atom      1.9017028514     3.8337239160    16.2131496458   Mg  0.0 0.0    4.63597802e-07  2.81303927e-08 -1.05968449e-06
atom      4.0622185396     3.8337238113    22.7504483229   Mg  0.0 0.0   -1.70706334e-07  1.19884911e-09  9.28177887e-08
atom      9.4683183355     0.0000007712    10.8544007585   Mg  0.0 0.0    1.70711009e-07 -1.20007103e-09 -9.28189325e-08
atom     11.6288340228     0.0000006665    17.3916994351   Mg  0.0 0.0   -4.63586702e-07 -2.81311894e-08  1.05968829e-06
atom      1.3971316897    -0.0000014172    20.3819221771   Si  0.0 0.0   -3.86971842e-07  2.43143738e-08 -1.58022031e-07
atom      4.9332324512     0.0000004530    13.7356687060   Si  0.0 0.0    4.95472293e-07 -3.38900042e-08  3.38811867e-08
atom      5.7443720131     0.0000001060    18.5214487813   Al  0.0 0.0   -1.61780697e-06 -2.40274494e-08 -6.14466540e-07
atom      7.7861648616     3.8337244767    15.0834003003   Al  0.0 0.0    1.61781481e-06  2.40256355e-08  6.14465863e-07
atom      8.5973044237     3.8337241295    19.8691803755   Si  0.0 0.0   -4.95465560e-07  3.38889741e-08 -3.38818383e-08
atom     12.1334051849     3.8337259998    13.2229269042   Si  0.0 0.0    3.86979390e-07 -2.43143376e-08  1.58022537e-07
atom     13.6014915733     3.8337248680    21.1542316550   Al  0.0 0.0    4.10746787e-12  3.18007126e-12 -2.30614802e-13
atom     15.6852576223     0.0000003855    12.3108513177   Mg  0.0 0.0    4.63593956e-07  2.81299451e-08 -1.05969091e-06
atom     17.8457733099     0.0000002807    18.8481499939   Mg  0.0 0.0   -1.70705896e-07  1.19891007e-09  9.28184073e-08
atom     23.2518736154     3.8337263364     6.9521021856   Mg  0.0 0.0    1.70711412e-07 -1.19925744e-09 -9.28180740e-08
atom     25.4123893032     3.8337262316    13.4894008629   Mg  0.0 0.0   -4.63590374e-07 -2.81300500e-08  1.05968297e-06
atom     15.1806869697     3.8337241481    16.4796236044   Si  0.0 0.0   -3.86971316e-07  2.43131809e-08 -1.58022927e-07
atom     18.7167877314     3.8337260183     9.8333701335   Si  0.0 0.0    4.95470474e-07 -3.38902698e-08  3.38785202e-08
atom     19.5279272932     3.8337256712    14.6191502089   Al  0.0 0.0   -1.61780799e-06 -2.40274428e-08 -6.14469872e-07
atom     21.5697196321     0.0000009460    11.1811019716   Al  0.0 0.0    1.61781355e-06  2.40261644e-08  6.14462885e-07
atom     22.3808591943     0.0000005988    15.9668820468   Si  0.0 0.0   -4.95467750e-07  3.38899106e-08 -3.38841574e-08
atom     25.9169599552     0.0000024690     9.3206285751   Si  0.0 0.0    3.86979597e-07 -2.43142588e-08  1.58022730e-07
atom     -0.0709541881     7.6674488099    12.4506171823   Al  0.0 0.0   -4.82359427e-13  5.62357930e-13  1.67833264e-12
atom      2.0128123707    11.5011734229     3.6072366006   Mg  0.0 0.0    4.63590387e-07  2.81299443e-08 -1.05968541e-06
atom      4.1733280589    11.5011733181    10.1445352774   Mg  0.0 0.0   -1.70714303e-07  1.19915531e-09  9.28207057e-08
atom      9.5794278539     7.6674502780    -1.7515122867   Mg  0.0 0.0    1.70709286e-07 -1.19919137e-09 -9.28188551e-08
atom     11.7399435427     7.6674501732     4.7857863902   Mg  0.0 0.0   -4.63600002e-07 -2.81299704e-08  1.05968512e-06
atom      1.5082412093     7.6674480895     7.7760091317   Si  0.0 0.0   -3.86981101e-07  2.43138225e-08 -1.58020509e-07
atom      5.0443419698     7.6674499598     1.1297556606   Si  0.0 0.0    4.95468288e-07 -3.38896320e-08  3.38817172e-08
atom      5.8554815326     7.6674496127     5.9155357357   Al  0.0 0.0   -1.61781703e-06 -2.40264778e-08 -6.14464678e-07
atom      7.8972743807    11.5011739834     2.4774872548   Al  0.0 0.0    1.61780858e-06  2.40264727e-08  6.14466413e-07
atom      8.7084139432    11.5011736362     7.2632673300   Si  0.0 0.0   -4.95475679e-07  3.38895996e-08 -3.38802345e-08
atom     12.2445147039    11.5011755065     0.6170138592   Si  0.0 0.0    3.86973748e-07 -2.43139450e-08  1.58020778e-07
atom     13.7126010923    11.5011743753     8.5483186098   Al  0.0 0.0   -3.97249758e-12 -5.82841694e-13 -3.05523245e-13
atom     15.7963671408     7.6674498921    -0.2950617285   Mg  0.0 0.0    4.63592785e-07  2.81302387e-08 -1.05968350e-06
atom     17.9568828293     7.6674497874     6.2422369486   Mg  0.0 0.0   -1.70714555e-07  1.19897427e-09  9.28189632e-08
atom     23.3629831339    11.5011758432    -5.6538108594   Mg  0.0 0.0    1.70709070e-07 -1.19901028e-09 -9.28200860e-08
atom     25.5234988225    11.5011757385     0.8834878171   Mg  0.0 0.0   -4.63597451e-07 -2.81302979e-08  1.05968786e-06
atom     15.2917964893    11.5011736548     3.8737105590   Si  0.0 0.0   -3.86981531e-07  2.43136619e-08 -1.58021144e-07
atom     18.8278972495    11.5011755250    -2.7725429124   Si  0.0 0.0    4.95470990e-07 -3.38892746e-08  3.38832016e-08
atom     19.6390368124    11.5011751779     2.0132371627   Al  0.0 0.0   -1.61781502e-06 -2.40262748e-08 -6.14462751e-07
atom     21.6808291508     7.6674504527    -1.4248110744   Al  0.0 0.0    1.61781043e-06  2.40261665e-08  6.14468596e-07
atom     22.4919687133     7.6674501056     3.3609690008   Si  0.0 0.0   -4.95473203e-07  3.38891663e-08 -3.38785016e-08
atom     26.0280694743     7.6674519758    -3.2852844699   Si  0.0 0.0    3.86973239e-07 -2.43136370e-08  1.58021268e-07
atom     -0.1820631966     7.6674483991    25.0565299840   Al  0.0 0.0    1.46977455e-13  5.63784044e-13 -1.41988682e-12
atom      1.9017033611    11.5011730121    16.2131494020   Mg  0.0 0.0    4.63597961e-07  2.81299414e-08 -1.05968434e-06
atom      4.0622190492    11.5011729073    22.7504480791   Mg  0.0 0.0   -1.70706139e-07  1.19915108e-09  9.28179543e-08
atom      9.4683188452     7.6674498671    10.8544005147   Mg  0.0 0.0    1.70710171e-07 -1.19918932e-09 -9.28188862e-08
atom     11.6288345326     7.6674497623    17.3916991917   Mg  0.0 0.0   -4.63588445e-07 -2.81299805e-08  1.05968504e-06
atom      1.3971321994     7.6674476787    20.3819219332   Si  0.0 0.0   -3.86971803e-07  2.43138137e-08 -1.58021855e-07
atom      4.9332329608     7.6674495490    13.7356684621   Si  0.0 0.0    4.95472226e-07 -3.38896345e-08  3.38814130e-08
atom      5.7443725226     7.6674492019    18.5214485375   Al  0.0 0.0   -1.61780677e-06 -2.40264863e-08 -6.14466398e-07
atom      7.7861653713    11.5011735726    15.0834000565   Al  0.0 0.0    1.61781444e-06  2.40264679e-08  6.14465628e-07
atom      8.5973049334    11.5011732254    19.8691801317   Si  0.0 0.0   -4.95465661e-07  3.38895973e-08 -3.38820543e-08
atom     12.1334056946    11.5011750957    13.2229266603   Si  0.0 0.0    3.86979196e-07 -2.43139456e-08  1.58022413e-07
atom     13.6014920830    11.5011739645    21.1542314111   Al  0.0 0.0    4.02502249e-12 -5.88800757e-13 -2.96262529e-13
atom     15.6852581317     7.6674494813    12.3108510734   Mg  0.0 0.0    4.63595755e-07  2.81302359e-08 -1.05968765e-06
atom     17.8457738195     7.6674493766    18.8481497501   Mg  0.0 0.0   -1.70705043e-07  1.19896748e-09  9.28183885e-08
atom     23.2518741251    11.5011754324     6.9521019417   Mg  0.0 0.0    1.70711466e-07 -1.19901120e-09 -9.28180957e-08
atom     25.4123898129    11.5011753276    13.4894006191   Mg  0.0 0.0   -4.63590561e-07 -2.81303057e-08  1.05968278e-06
atom     15.1806874793    11.5011732440    16.4796233605   Si  0.0 0.0   -3.86971371e-07  2.43136519e-08 -1.58022883e-07
atom     18.7167882410    11.5011751142     9.8333698897   Si  0.0 0.0    4.95470529e-07 -3.38892755e-08  3.38786772e-08
atom     19.5279278028    11.5011747671    14.6191499650   Al  0.0 0.0   -1.61780777e-06 -2.40262799e-08 -6.14469601e-07
atom     21.5697201418     7.6674500419    11.1811017278   Al  0.0 0.0    1.61781331e-06  2.40261642e-08  6.14462744e-07
atom     22.3808597040     7.6674496948    15.9668818030   Si  0.0 0.0   -4.95467694e-07  3.38891636e-08 -3.38844013e-08
atom     25.9169604648     7.6674515650     9.3206283313   Si  0.0 0.0    3.86979513e-07 -2.43136404e-08  1.58022571e-07
atom     -0.0709536785    15.3348979064    12.4506169385   Al  0.0 0.0   -4.82219845e-13 -3.26650782e-12  1.63770553e-12
atom      2.0128128806    19.1686225188     3.6072363572   Mg  0.0 0.0    4.63588613e-07  2.81311620e-08 -1.05968870e-06
atom      4.1733285686    19.1686224140    10.1445350335   Mg  0.0 0.0   -1.70714998e-07  1.19987160e-09  9.28208538e-08
atom      9.5794283636    15.3348993739    -1.7515125305   Mg  0.0 0.0    1.70709310e-07 -1.19907716e-09 -9.28188364e-08
atom     11.7399440524    15.3348992692     4.7857861464   Mg  0.0 0.0   -4.63599880e-07 -2.81304600e-08  1.05968535e-06
atom      1.5082417189    15.3348971855     7.7760088879   Si  0.0 0.0   -3.86981146e-07  2.43140837e-08 -1.58020650e-07
atom      5.0443424795    15.3348990557     1.1297554168   Si  0.0 0.0    4.95468211e-07 -3.38890103e-08  3.38815332e-08
atom      5.8554820423    15.3348987085     5.9155354919   Al  0.0 0.0   -1.61781738e-06 -2.40256262e-08 -6.14464946e-07
atom      7.8972748902    19.1686230793     2.4774870110   Al  0.0 0.0    1.61780873e-06  2.40274493e-08  6.14466586e-07
atom      8.7084144528    19.1686227322     7.2632670861   Si  0.0 0.0   -4.95475711e-07  3.38900206e-08 -3.38800037e-08
atom     12.2445152136    19.1686246025     0.6170136154   Si  0.0 0.0    3.86973670e-07 -2.43134989e-08  1.58020934e-07
atom     13.7126016019    19.1686234717     8.5483183659   Al  0.0 0.0   -4.06328223e-12 -3.25082302e-12 -3.51463502e-13
atom     15.7963676504    15.3348989882    -0.2950619723   Mg  0.0 0.0    4.63592565e-07  2.81297524e-08 -1.05968376e-06
atom     17.9568833389    15.3348988834     6.2422367048   Mg  0.0 0.0   -1.70714595e-07  1.19908661e-09  9.28188608e-08
atom     23.3629836435    19.1686249391    -5.6538111032   Mg  0.0 0.0    1.70710005e-07 -1.19823961e-09 -9.28200537e-08
atom     25.5234993319    19.1686248343     0.8834875728   Mg  0.0 0.0   -4.63595717e-07 -2.81292765e-08  1.05969116e-06
atom     15.2917969990    19.1686227508     3.8737103152   Si  0.0 0.0   -3.86981727e-07  2.43140379e-08 -1.58021351e-07
atom     18.8278977592    19.1686246210    -2.7725431562   Si  0.0 0.0    4.95470962e-07 -3.38892268e-08  3.38829332e-08
atom     19.6390373221    19.1686242738     2.0132369188   Al  0.0 0.0   -1.61781534e-06 -2.40256240e-08 -6.14462864e-07
atom     21.6808296604    15.3348995485    -1.4248113183   Al  0.0 0.0    1.61781088e-06  2.40270191e-08  6.14468841e-07
atom     22.4919692229    15.3348992015     3.3609687569   Si  0.0 0.0   -4.95473090e-07  3.38897942e-08 -3.38783067e-08
atom     26.0280699840    15.3349010717    -3.2852847137   Si  0.0 0.0    3.86973382e-07 -2.43133762e-08  1.58021348e-07
atom     -0.1820626870    15.3348974956    25.0565297402   Al  0.0 0.0    1.50570537e-13 -3.27334422e-12 -1.45815947e-12
atom      1.9017038710    19.1686221079    16.2131491586   Mg  0.0 0.0    4.63596186e-07  2.81311586e-08 -1.05968763e-06
atom      4.0622195590    19.1686220032    22.7504478352   Mg  0.0 0.0   -1.70706834e-07  1.19986481e-09  9.28181031e-08
atom      9.4683193549    15.3348989631    10.8544002708   Mg  0.0 0.0    1.70710194e-07 -1.19907647e-09 -9.28188689e-08
atom     11.6288350423    15.3348988584    17.3916989478   Mg  0.0 0.0   -4.63588323e-07 -2.81304656e-08  1.05968527e-06
atom      1.3971327090    15.3348967747    20.3819216894   Si  0.0 0.0   -3.86971848e-07  2.43140796e-08 -1.58022001e-07
atom      4.9332334705    15.3348986449    13.7356682183   Si  0.0 0.0    4.95472148e-07 -3.38890149e-08  3.38812319e-08
atom      5.7443730324    15.3348982977    18.5214482937   Al  0.0 0.0   -1.61780712e-06 -2.40256315e-08 -6.14466667e-07
atom      7.7861658809    19.1686226684    15.0833998126   Al  0.0 0.0    1.61781459e-06  2.40274467e-08  6.14465799e-07
atom      8.5973054430    19.1686223214    19.8691798878   Si  0.0 0.0   -4.95465692e-07  3.38900140e-08 -3.38818199e-08
atom     12.1334062042    19.1686241917    13.2229264165   Si  0.0 0.0    3.86979104e-07 -2.43135008e-08  1.58022562e-07
atom     13.6014925926    19.1686230609    21.1542311673   Al  0.0 0.0    3.89803151e-12 -3.25511473e-12 -3.57198073e-13
atom     15.6852586414    15.3348985774    12.3108508296   Mg  0.0 0.0    4.63595535e-07  2.81297487e-08 -1.05968790e-06
atom     17.8457743291    15.3348984726    18.8481495062   Mg  0.0 0.0   -1.70705083e-07  1.19908199e-09  9.28182874e-08
atom     23.2518746346    19.1686245283     6.9521016979   Mg  0.0 0.0    1.70712404e-07 -1.19823713e-09 -9.28180632e-08
atom     25.4123903223    19.1686244235    13.4894003748   Mg  0.0 0.0   -4.63588827e-07 -2.81292838e-08  1.05968607e-06
atom     15.1806879890    19.1686223400    16.4796231167   Si  0.0 0.0   -3.86971552e-07  2.43140284e-08 -1.58023084e-07
atom     18.7167887507    19.1686242102     9.8333696459   Si  0.0 0.0    4.95470504e-07 -3.38892293e-08  3.38784059e-08
atom     19.5279283125    19.1686238630    14.6191497212   Al  0.0 0.0   -1.61780809e-06 -2.40256311e-08 -6.14469716e-07
atom     21.5697206514    15.3348991377    11.1811014839   Al  0.0 0.0    1.61781375e-06  2.40270167e-08  6.14462990e-07
atom     22.3808602136    15.3348987907    15.9668815591   Si  0.0 0.0   -4.95467579e-07  3.38897887e-08 -3.38842063e-08
atom     25.9169609745    15.3349006609     9.3206280874   Si  0.0 0.0    3.86979660e-07 -2.43133807e-08  1.58022650e-07
energy -1.792118670604930e+03
charge 0.0000
end
