begin
comment 22 atoms, species Mg10Si12
lattice     27.1007972180     0.0000000000    -9.1419117674
lattice      0.0000000000     7.7112803996     0.0000000000
lattice     -0.2873847258     0.0000000000    13.0881891284
atom     -0.2457986001     0.0000000000    12.9255198780   Mg  0.0 0.0   -1.02499992e-06  7.49999944e-08 -1.45499989e-06
atom      2.0478163795     3.8556373397     4.0075782849   Mg  0.0 0.0   -2.23434983e-04  5.99999955e-08  9.76499927e-06
atom      4.0145283733     3.8556373397    10.6232473192   Mg  0.0 0.0   -3.05754977e-04 -8.99999932e-08 -6.80249949e-05
atom      9.3316205798     0.0000000000    -2.4314669800   Mg  0.0 0.0    3.05384977e-04  9.49999929e-08  6.66049950e-05
atom     11.2982782314     0.0000000000     4.1844280037   Mg  0.0 0.0    2.23459983e-04 -5.99999955e-08 -1.19299991e-05
atom      1.4133390902     0.0000000000     8.0701738128   Si  0.0 0.0    2.71599980e-05  1.74999987e-07  2.13694984e-04
atom      5.1849690238     0.0000000000     1.4524912549   Si  0.0 0.0   -6.18499954e-05 -6.99999947e-08  5.30574960e-04
atom      5.5293902364     0.0000000000     6.1963212924   Si  0.0 0.0   -2.96544978e-04 -1.74999987e-07 -3.04919977e-04
atom      7.8165899697     3.8556373397     1.9954561866   Si  0.0 0.0    2.95334978e-04  1.54999988e-07  3.05574977e-04
atom      8.1610140425     3.8556373397     6.7392633432   Si  0.0 0.0    6.31749953e-05  9.99999925e-08 -5.28309960e-04
atom     11.9326067945     3.8556373397     0.1216008061   Si  0.0 0.0   -2.62599980e-05 -2.04999985e-07 -2.11504984e-04
atom     13.3046000089     3.8556373397     8.3545668545   Mg  0.0 0.0   -1.10499992e-06 -7.49999944e-08 -1.57499988e-06
atom     15.5982178486     0.0000000000    -0.5633747387   Mg  0.0 0.0   -2.23564983e-04  1.19999991e-07  9.67499927e-06
atom     17.5649269823     0.0000000000     6.0522942957   Mg  0.0 0.0   -3.05649977e-04  4.49999966e-08 -6.80499949e-05
atom     22.8820220489     3.8556373397    -7.0024200036   Mg  0.0 0.0    3.05494977e-04 -4.49999966e-08  6.66149950e-05
atom     24.8486768404     3.8556373397    -0.3865250199   Mg  0.0 0.0    2.23414983e-04 -1.14999991e-07 -1.20749991e-05
atom     14.9637405593     3.8556373397     3.4992207893   Si  0.0 0.0    2.67699980e-05  9.49999929e-08  2.13964984e-04
atom     18.7353676327     3.8556373397    -3.1184646288   Si  0.0 0.0   -6.19849953e-05 -1.99999985e-07  5.30359960e-04
atom     19.0797888454     3.8556373397     1.6253682689   Si  0.0 0.0   -2.95389978e-04 -3.89999971e-07 -3.04879977e-04
atom     21.3669914388     0.0000000000    -2.5754968369   Si  0.0 0.0    2.96334978e-04  3.94999970e-07  3.05684977e-04
atom     21.7114155116     0.0000000000     2.1683103197   Si  0.0 0.0    6.26949953e-05  1.94999985e-07 -5.28424960e-04
atom     25.4830082636     0.0000000000    -4.4493522174   Si  0.0 0.0   -2.66649980e-05 -7.49999944e-08 -2.11354984e-04
energy -2.365795987310670e+02
charge 0.0000
end
