LAMMPS (22 Sep 2017)
OMP_NUM_THREADS environment is not set. Defaulting to 1 thread. (../comm.cpp:90)
  using 1 OpenMP thread(s) per MPI task
# Compute elastic constant tensor for a crystal
#
# Written by Aidan Thompson (Sandia, athomps@sandia.gov)
#
#  This script uses the following three include files.
#
#   init.mod      (must be modified for different crystal structures)
# 	       	  Define units, deformation parameters and initial
#		  configuration of the atoms and simulation cell.
#
#
#   potential.mod    (must be modified for different pair styles)
# 		     Define pair style and other attributes
#		     not stored in restart file
#
#
#   displace.mod    (displace.mod should not need to be modified)
# 		    Perform positive and negative box displacements
# 		    in direction ${dir} and size ${up}.
# 		    It uses the resultant changes
#		    in stress to compute one
# 		    row of the elastic stiffness tensor
#
#		    Inputs variables:
#		    	   dir = the Voigt deformation component
#		    		    (1,2,3,4,5,6)
#		    Global constants:
#       	    	   up = the deformation magnitude (strain units)
#       		   cfac = conversion from LAMMPS pressure units to
#               	   output units for elastic constants
#
#
#  To run this on a different system, it should only be necessary to
#  modify the files init.mod and potential.mod. In order to calculate
#  the elastic constants correctly, care must be taken to specify
#  the correct units in init.mod (units, cfac and cunits). It is also
#  important to verify that the minimization of energy w.r.t atom
#  positions in the deformed cell is fully converged.
#  One indication of this is that the elastic constants are insensitive
#  to the choice of the variable ${up} in init.mod. Another is to check
#  the final max and two-norm forces reported in the log file. If you know
#  that minimization is not required, you can set maxiter = 0.0 in
#  init.mod.
#

include init.mod
# NOTE: This script can be modified for different atomic structures,
# units, etc. See in.elastic for more info.
#

# Define the finite deformation size. Try several values of this
# variable to verify that results do not depend on it.
variable up equal 1.0e-5

# Define the amount of random jiggle for atoms
# This prevents atoms from staying on saddle points
variable atomjiggle equal 1.0e-5

# Uncomment one of these blocks, depending on what units
# you are using in LAMMPS and for output

# metal units, elastic constants in eV/A^3
#units		metal
#variable cfac equal 6.2414e-7
#variable cunits string eV/A^3

# metal units, elastic constants in GPa
units		metal
variable cfac equal 1.0e-4
variable cunits string GPa

# real units, elastic constants in GPa
#units		real
#variable cfac equal 1.01325e-4
#variable cunits string GPa

# Define minimization parameters
variable etol equal 0.0
variable ftol equal 1.0e-10
variable maxiter equal 100
variable maxeval equal 1000
variable dmax equal 1.0e-3

# generate the box and atom positions using a diamond lattice
# variable a equal 5.43

boundary	p p p

read_data "pos.lmp"
  triclinic box = (0 0 0) to (4.04134 4.04134 4.04134) with tilt (2.23218e-17 5.12931e-16 2.31202e-16)
  1 by 1 by 1 MPI processor grid
  reading atoms ...
  4 atoms
#lattice         diamond $a
#region		box prism 0 2.0 0 3.0 0 4.0 0.0 0.0 0.0
#create_box	1 box
#create_atoms	1 box

# Need to set mass to something, just to satisfy LAMMPS
#mass 1 1.0e-20
mass 1 24.305
mass 2 26.9815385
mass 3 28.0855
#mass 1 26.9815385

include potential.mod
# NOTE: This script can be modified for different pair styles
# See in.elastic for more info.

# Choose potential
#pair_style	sw
#pair_coeff * * Si.sw Si
#mass 1 24.305
#mass 2 26.9815385
#mass 3 28.0855

# Runner pot
variable runnerDir string "rv64_1"
variable runnerDir string "/home/glensk/Dropbox/Albert/scripts/dotfiles/scripts/potentials/runner_v2dg"
pair_style runner dir ${runnerDir} showewsum 1 showew yes resetew no maxew 1000000
pair_style runner dir /home/glensk/Dropbox/Albert/scripts/dotfiles/scripts/potentials/runner_v2dg showewsum 1 showew yes resetew no maxew 1000000
RuNNer pair style directory           : /home/glensk/Dropbox/Albert/scripts/dotfiles/scripts/potentials/runner_v2dg/
Show extrapolation warnings           : yes
Show extrapolation warning summary    : every 1 timesteps
Reset extrapolation warning counter   : no
Maximum allowed extrapolation warnings: 1000000
pair_coeff * * 7.937658735


# NN POT n2p2
#variable nnpDir string "/home/glensk/Dropbox/Albert/scripts/dotfiles/scripts/potentials/n2p2_v1ag"
#variable nnpDir string "/home/glensk/Dropbox/Albert/scripts/dotfiles/scripts/potentials/n2p2_v2ag"
#pair_style nnp dir ${nnpDir} showew no resetew yes maxew 100000000 cflength 1.8897261328 cfenergy 0.0367493254
#pair_coeff * * 11.0

#pair_style eam/alloy
#pair_coeff * * Al.eam.alloy_cutoff6_seed_127519_std_0.715638 Al
#pair_coeff * * Al99.eam.alloy Al

#pair_style meam/alloy
#pair_style meam
#pair_coeff * * library.meam Al meam.alsimgcufe Al

# Setup neighbor style
neighbor 1.0 nsq
neigh_modify once no every 1 delay 0 check yes

# Setup minimization style
min_style	     cg
min_modify	     dmax ${dmax} line quadratic
min_modify	     dmax 0.001 line quadratic

# Setup output
thermo		1
thermo_style custom step temp pe press pxx pyy pzz pxy pxz pyz lx ly lz vol
thermo_modify norm no

# Compute initial state
fix 3 all box/relax  aniso 0.0
minimize ${etol} ${ftol} ${maxiter} ${maxeval}
minimize 0 ${ftol} ${maxiter} ${maxeval}
minimize 0 1e-10 ${maxiter} ${maxeval}
minimize 0 1e-10 100 ${maxeval}
minimize 0 1e-10 100 1000
-----------------------------------------------------------------------
Starting RuNNer pair style setup...
-----------------------------------------------------------------------
Analyzing input.nn...
-----------------------------------------------------------------------
Number of elements:  3
Element  0: Mg (12)
Element  1: Al (13)
Element  2: Si (14)
-----------------------------------------------------------------------
Free atom energy of element  1 (Al) =  -2.40923540E+00
-----------------------------------------------------------------------
Free atom energy of element  0 (Mg) =  -6.26068620E+01
-----------------------------------------------------------------------
Free atom energy of element  2 (Si) =  -5.55978350E+00
-----------------------------------------------------------------------
Number of hidden layers:  2
-----------------------------------------------------------------------
Element  0 (Mg): layer  0:  24 nodes
Element  0 (Mg): layer  1:  24 nodes
Element  0 (Mg): layer  2:   1 nodes
Element  1 (Al): layer  0:  24 nodes
Element  1 (Al): layer  1:  24 nodes
Element  1 (Al): layer  2:   1 nodes
Element  2 (Si): layer  0:  24 nodes
Element  2 (Si): layer  1:  24 nodes
Element  2 (Si): layer  2:   1 nodes
Element  0 (Mg): layer  0: activation function:  2
Element  0 (Mg): layer  1: activation function:  2
Element  0 (Mg): layer  2: activation function:  1
Element  1 (Al): layer  0: activation function:  2
Element  1 (Al): layer  1: activation function:  2
Element  1 (Al): layer  2: activation function:  1
Element  2 (Si): layer  0: activation function:  2
Element  2 (Si): layer  1: activation function:  2
Element  2 (Si): layer  2: activation function:  1
-----------------------------------------------------------------------
cutoff type = 2
-----------------------------------------------------------------------
Element  0 (Mg): 64 symmetry functions
Element  1 (Al): 64 symmetry functions
Element  2 (Si): 64 symmetry functions
-----------------------------------------------------------------------
Finished analyzing input.nn.
-----------------------------------------------------------------------
Element  0 (Mg): layer  0 allocated, dim: ( 64, 24), act. func.:  2
Element  0 (Mg): layer  1 allocated, dim: ( 24, 24), act. func.:  2
Element  0 (Mg): layer  2 allocated, dim: ( 24,  1), act. func.:  1
Element  1 (Al): layer  0 allocated, dim: ( 64, 24), act. func.:  2
Element  1 (Al): layer  1 allocated, dim: ( 24, 24), act. func.:  2
Element  1 (Al): layer  2 allocated, dim: ( 24,  1), act. func.:  1
Element  2 (Si): layer  0 allocated, dim: ( 64, 24), act. func.:  2
Element  2 (Si): layer  1 allocated, dim: ( 24, 24), act. func.:  2
Element  2 (Si): layer  2 allocated, dim: ( 24,  1), act. func.:  1
-----------------------------------------------------------------------
Element  0 (Mg): Reading /home/glensk/Dropbox/Albert/scripts/dotfiles/scripts/potentials/runner_v2dg/weights.012.data...
Element  0 (Mg): weights:   2136, bias:   49, total:   2185
Element  1 (Al): Reading /home/glensk/Dropbox/Albert/scripts/dotfiles/scripts/potentials/runner_v2dg/weights.013.data...
Element  1 (Al): weights:   2136, bias:   49, total:   2185
Element  2 (Si): Reading /home/glensk/Dropbox/Albert/scripts/dotfiles/scripts/potentials/runner_v2dg/weights.014.data...
Element  2 (Si): weights:   2136, bias:   49, total:   2185
-----------------------------------------------------------------------
Sorting according to   type.
Sorting according to     rc.
Sorting according to    eta.
Sorting according to   zeta.
Sorting according to lambda.
Sorting according to     rs.
Sorting according to     e1.
Sorting according to     e2.
Printing symmetry functions...
-----------------------------------------------------------------------
short range atomic symmetry functions element Mg
-----------------------------------------------------------------------
   1 Mg  2 Mg              0.016   0.000   8.000
   2 Mg  2 Al              0.016   0.000   8.000
   3 Mg  2 Si              0.016   0.000   8.000
   4 Mg  2 Al              0.036   0.000   8.000
   5 Mg  2 Si              0.036   0.000   8.000
   6 Mg  2 Mg              0.062   0.000   8.000
   7 Mg  2 Al              0.082   0.000   8.000
   8 Mg  2 Si              0.082   0.000   8.000
   9 Mg  2 Mg              0.124   0.000   8.000
  10 Mg  2 Mg              0.016   0.000  16.000
  11 Mg  2 Al              0.016   0.000  16.000
  12 Mg  2 Si              0.016   0.000  16.000
  13 Mg  2 Mg              0.045  11.314  16.000
  14 Mg  2 Si              0.045  11.314  16.000
  15 Mg  2 Mg              0.091   8.000  16.000
  16 Mg  2 Al              0.091   8.000  16.000
  17 Mg  2 Mg              0.112  13.007  16.000
  18 Mg  2 Al              0.112  13.007  16.000
  19 Mg  2 Si              0.112  13.007  16.000
  20 Mg  2 Mg              0.003   0.000  20.000
  21 Mg  2 Al              0.003   0.000  20.000
  22 Mg  2 Si              0.003   0.000  20.000
  23 Mg  2 Si              0.029  14.142  20.000
  24 Mg  2 Mg              0.058  10.000  20.000
  25 Mg  2 Al              0.058  10.000  20.000
  26 Mg  2 Mg              0.071  16.259  20.000
  27 Mg  2 Al              0.071  16.259  20.000
  28 Mg  2 Si              0.071  16.259  20.000
  29 Mg  2 Mg              0.108  13.218  20.000
  30 Mg  2 Al              0.108  13.218  20.000
  31 Mg  2 Si              0.108  13.218  20.000
  32 Mg  2 Mg              0.117   7.071  20.000
  33 Mg  2 Si              0.117   7.071  20.000
  34 Mg  3 Mg Si   0.016   1.000   1.000   8.000
  35 Mg  3 Al Al   0.016   1.000   1.000   8.000
  36 Mg  3 Si Si   0.016   1.000   1.000   8.000
  37 Mg  3 Mg Mg   0.007  -1.000   1.000  12.000
  38 Mg  3 Mg Al   0.007  -1.000   1.000  12.000
  39 Mg  3 Mg Si   0.007  -1.000   1.000  12.000
  40 Mg  3 Al Al   0.007  -1.000   1.000  12.000
  41 Mg  3 Al Si   0.007  -1.000   1.000  12.000
  42 Mg  3 Si Si   0.007  -1.000   1.000  12.000
  43 Mg  3 Mg Mg   0.007   1.000   1.000  12.000
  44 Mg  3 Mg Al   0.007   1.000   1.000  12.000
  45 Mg  3 Mg Si   0.007   1.000   1.000  12.000
  46 Mg  3 Al Al   0.007   1.000   1.000  12.000
  47 Mg  3 Al Si   0.007   1.000   1.000  12.000
  48 Mg  3 Si Si   0.007   1.000   1.000  12.000
  49 Mg  3 Mg Mg   0.007  -1.000   4.000  12.000
  50 Mg  3 Mg Si   0.007  -1.000   4.000  12.000
  51 Mg  3 Si Si   0.007  -1.000   4.000  12.000
  52 Mg  3 Mg Mg   0.007   1.000   4.000  12.000
  53 Mg  3 Mg Al   0.007   1.000   4.000  12.000
  54 Mg  3 Mg Si   0.007   1.000   4.000  12.000
  55 Mg  3 Al Al   0.007   1.000   4.000  12.000
  56 Mg  3 Al Si   0.007   1.000   4.000  12.000
  57 Mg  3 Si Si   0.007   1.000   4.000  12.000
  58 Mg  3 Mg Si   0.020  -1.000   1.000  12.000
  59 Mg  3 Si Si   0.020  -1.000   1.000  12.000
  60 Mg  3 Mg Mg   0.020   1.000   1.000  12.000
  61 Mg  3 Mg Al   0.020   1.000   1.000  12.000
  62 Mg  3 Mg Si   0.020   1.000   1.000  12.000
  63 Mg  3 Al Si   0.020   1.000   1.000  12.000
  64 Mg  3 Si Si   0.020   1.000   4.000  12.000
-----------------------------------------------------------------------
short range atomic symmetry functions element Al
-----------------------------------------------------------------------
   1 Al  2 Mg              0.016   0.000   8.000
   2 Al  2 Al              0.016   0.000   8.000
   3 Al  2 Si              0.016   0.000   8.000
   4 Al  2 Mg              0.036   0.000   8.000
   5 Al  2 Al              0.062   0.000   8.000
   6 Al  2 Mg              0.082   0.000   8.000
   7 Al  2 Si              0.082   0.000   8.000
   8 Al  2 Al              0.124   0.000   8.000
   9 Al  2 Mg              0.016   0.000  16.000
  10 Al  2 Al              0.016   0.000  16.000
  11 Al  2 Si              0.016   0.000  16.000
  12 Al  2 Al              0.045  11.314  16.000
  13 Al  2 Mg              0.091   8.000  16.000
  14 Al  2 Al              0.091   8.000  16.000
  15 Al  2 Si              0.091   8.000  16.000
  16 Al  2 Mg              0.112  13.007  16.000
  17 Al  2 Al              0.112  13.007  16.000
  18 Al  2 Si              0.112  13.007  16.000
  19 Al  2 Mg              0.003   0.000  20.000
  20 Al  2 Al              0.003   0.000  20.000
  21 Al  2 Si              0.003   0.000  20.000
  22 Al  2 Mg              0.058  10.000  20.000
  23 Al  2 Al              0.058  10.000  20.000
  24 Al  2 Si              0.058  10.000  20.000
  25 Al  2 Mg              0.071  16.259  20.000
  26 Al  2 Al              0.071  16.259  20.000
  27 Al  2 Si              0.071  16.259  20.000
  28 Al  2 Mg              0.108  13.218  20.000
  29 Al  2 Al              0.108  13.218  20.000
  30 Al  2 Si              0.108  13.218  20.000
  31 Al  2 Mg              0.117   7.071  20.000
  32 Al  2 Si              0.117   7.071  20.000
  33 Al  3 Al Al   0.016  -1.000   1.000   8.000
  34 Al  3 Mg Al   0.016   1.000   1.000   8.000
  35 Al  3 Al Al   0.016   1.000   1.000   8.000
  36 Al  3 Al Si   0.016   1.000   1.000   8.000
  37 Al  3 Si Si   0.016   1.000   1.000   8.000
  38 Al  3 Mg Mg   0.007  -1.000   1.000  12.000
  39 Al  3 Mg Al   0.007  -1.000   1.000  12.000
  40 Al  3 Mg Si   0.007  -1.000   1.000  12.000
  41 Al  3 Al Al   0.007  -1.000   1.000  12.000
  42 Al  3 Al Si   0.007  -1.000   1.000  12.000
  43 Al  3 Si Si   0.007  -1.000   1.000  12.000
  44 Al  3 Mg Mg   0.007   1.000   1.000  12.000
  45 Al  3 Mg Al   0.007   1.000   1.000  12.000
  46 Al  3 Mg Si   0.007   1.000   1.000  12.000
  47 Al  3 Al Al   0.007   1.000   1.000  12.000
  48 Al  3 Al Si   0.007   1.000   1.000  12.000
  49 Al  3 Si Si   0.007   1.000   1.000  12.000
  50 Al  3 Mg Mg   0.007  -1.000   4.000  12.000
  51 Al  3 Mg Si   0.007  -1.000   4.000  12.000
  52 Al  3 Si Si   0.007  -1.000   4.000  12.000
  53 Al  3 Mg Mg   0.007   1.000   4.000  12.000
  54 Al  3 Mg Al   0.007   1.000   4.000  12.000
  55 Al  3 Mg Si   0.007   1.000   4.000  12.000
  56 Al  3 Al Al   0.007   1.000   4.000  12.000
  57 Al  3 Al Si   0.007   1.000   4.000  12.000
  58 Al  3 Si Si   0.007   1.000   4.000  12.000
  59 Al  3 Si Si   0.020  -1.000   1.000  12.000
  60 Al  3 Mg Mg   0.020   1.000   1.000  12.000
  61 Al  3 Mg Si   0.020   1.000   1.000  12.000
  62 Al  3 Al Si   0.020   1.000   1.000  12.000
  63 Al  3 Mg Al   0.020   1.000   2.000  12.000
  64 Al  3 Si Si   0.020   1.000   2.000  12.000
-----------------------------------------------------------------------
short range atomic symmetry functions element Si
-----------------------------------------------------------------------
   1 Si  2 Mg              0.016   0.000   8.000
   2 Si  2 Al              0.016   0.000   8.000
   3 Si  2 Si              0.016   0.000   8.000
   4 Si  2 Si              0.036   0.000   8.000
   5 Si  2 Mg              0.082   0.000   8.000
   6 Si  2 Al              0.082   0.000   8.000
   7 Si  2 Si              0.082   0.000   8.000
   8 Si  2 Si              0.124   0.000   8.000
   9 Si  2 Mg              0.016   0.000  16.000
  10 Si  2 Al              0.016   0.000  16.000
  11 Si  2 Si              0.021   0.000  16.000
  12 Si  2 Mg              0.091   8.000  16.000
  13 Si  2 Al              0.091   8.000  16.000
  14 Si  2 Si              0.091   8.000  16.000
  15 Si  2 Mg              0.112  13.007  16.000
  16 Si  2 Al              0.112  13.007  16.000
  17 Si  2 Si              0.112  13.007  16.000
  18 Si  2 Mg              0.003   0.000  20.000
  19 Si  2 Al              0.003   0.000  20.000
  20 Si  2 Si              0.003   0.000  20.000
  21 Si  2 Mg              0.058  10.000  20.000
  22 Si  2 Si              0.058  10.000  20.000
  23 Si  2 Mg              0.071  16.259  20.000
  24 Si  2 Al              0.071  16.259  20.000
  25 Si  2 Si              0.071  16.259  20.000
  26 Si  2 Mg              0.108  13.218  20.000
  27 Si  2 Al              0.108  13.218  20.000
  28 Si  2 Si              0.108  13.218  20.000
  29 Si  2 Mg              0.117   7.071  20.000
  30 Si  2 Si              0.117   7.071  20.000
  31 Si  3 Mg Si   0.016   1.000   1.000   8.000
  32 Si  3 Al Al   0.016   1.000   1.000   8.000
  33 Si  3 Al Si   0.016   1.000   1.000   8.000
  34 Si  3 Si Si   0.016   1.000   1.000   8.000
  35 Si  3 Si Si   0.016  -1.000   2.000   8.000
  36 Si  3 Si Si   0.016   1.000   8.000   8.000
  37 Si  3 Mg Mg   0.007  -1.000   1.000  12.000
  38 Si  3 Mg Al   0.007  -1.000   1.000  12.000
  39 Si  3 Mg Si   0.007  -1.000   1.000  12.000
  40 Si  3 Al Al   0.007  -1.000   1.000  12.000
  41 Si  3 Al Si   0.007  -1.000   1.000  12.000
  42 Si  3 Mg Mg   0.007   1.000   1.000  12.000
  43 Si  3 Mg Al   0.007   1.000   1.000  12.000
  44 Si  3 Mg Si   0.007   1.000   1.000  12.000
  45 Si  3 Al Al   0.007   1.000   1.000  12.000
  46 Si  3 Al Si   0.007   1.000   1.000  12.000
  47 Si  3 Si Si   0.007   1.000   1.000  12.000
  48 Si  3 Si Si   0.007  -1.000   2.000  12.000
  49 Si  3 Mg Mg   0.007  -1.000   4.000  12.000
  50 Si  3 Mg Al   0.007  -1.000   4.000  12.000
  51 Si  3 Mg Si   0.007  -1.000   4.000  12.000
  52 Si  3 Si Si   0.007  -1.000   4.000  12.000
  53 Si  3 Mg Mg   0.007   1.000   4.000  12.000
  54 Si  3 Mg Si   0.007   1.000   4.000  12.000
  55 Si  3 Al Si   0.007   1.000   4.000  12.000
  56 Si  3 Si Si   0.007   1.000   4.000  12.000
  57 Si  3 Mg Mg   0.020  -1.000   1.000  12.000
  58 Si  3 Mg Si   0.020  -1.000   1.000  12.000
  59 Si  3 Si Si   0.020  -1.000   1.000  12.000
  60 Si  3 Mg Mg   0.020   1.000   1.000  12.000
  61 Si  3 Mg Al   0.020   1.000   1.000  12.000
  62 Si  3 Mg Si   0.020   1.000   1.000  12.000
  63 Si  3 Si Si   0.020   1.000   1.000  12.000
  64 Si  3 Al Si   0.020   1.000   4.000  12.000
-----------------------------------------------------------------------
Reading scaling.data...
Finished reading scaling.data.
-----------------------------------------------------------------------
rcmax = 20.000000
-----------------------------------------------------------------------
Grouping symmetry functions...
Printing symmetry function groups...
-----------------------------------------------------------------------
short range atomic symmetry functions groups of element Mg
-----------------------------------------------------------------------
   1 Mg  2 Mg                  *       *   8.000    3
                           0.016   0.000                 1    1
                           0.062   0.000                 2    6
                           0.124   0.000                 3    9
   2 Mg  2 Al                  *       *   8.000    3
                           0.016   0.000                 1    2
                           0.036   0.000                 2    4
                           0.082   0.000                 3    7
   3 Mg  2 Si                  *       *   8.000    3
                           0.016   0.000                 1    3
                           0.036   0.000                 2    5
                           0.082   0.000                 3    8
   4 Mg  2 Mg                  *       *  16.000    4
                           0.016   0.000                 1   10
                           0.045  11.314                 2   13
                           0.091   8.000                 3   15
                           0.112  13.007                 4   17
   5 Mg  2 Al                  *       *  16.000    3
                           0.016   0.000                 1   11
                           0.091   8.000                 2   16
                           0.112  13.007                 3   18
   6 Mg  2 Si                  *       *  16.000    3
                           0.016   0.000                 1   12
                           0.045  11.314                 2   14
                           0.112  13.007                 3   19
   7 Mg  2 Mg                  *       *  20.000    5
                           0.003   0.000                 1   20
                           0.058  10.000                 2   24
                           0.071  16.259                 3   26
                           0.108  13.218                 4   29
                           0.117   7.071                 5   32
   8 Mg  2 Al                  *       *  20.000    4
                           0.003   0.000                 1   21
                           0.058  10.000                 2   25
                           0.071  16.259                 3   27
                           0.108  13.218                 4   30
   9 Mg  2 Si                  *       *  20.000    5
                           0.003   0.000                 1   22
                           0.029  14.142                 2   23
                           0.071  16.259                 3   28
                           0.108  13.218                 4   31
                           0.117   7.071                 5   33
  10 Mg  3 Mg Si       *       *       *   8.000    1
                   0.016   1.000   1.000                 1   34    1
  11 Mg  3 Al Al       *       *       *   8.000    1
                   0.016   1.000   1.000                 1   35    1
  12 Mg  3 Si Si       *       *       *   8.000    1
                   0.016   1.000   1.000                 1   36    1
  13 Mg  3 Mg Mg       *       *       *  12.000    5
                   0.007  -1.000   1.000                 1   37    1
                   0.007   1.000   1.000                 2   43    1
                   0.007  -1.000   4.000                 3   49    1
                   0.007   1.000   4.000                 4   52    1
                   0.020   1.000   1.000                 5   60    5
  14 Mg  3 Mg Al       *       *       *  12.000    4
                   0.007  -1.000   1.000                 1   38    1
                   0.007   1.000   1.000                 2   44    1
                   0.007   1.000   4.000                 3   53    1
                   0.020   1.000   1.000                 4   61    4
  15 Mg  3 Mg Si       *       *       *  12.000    6
                   0.007  -1.000   1.000                 1   39    1
                   0.007   1.000   1.000                 2   45    1
                   0.007  -1.000   4.000                 3   50    1
                   0.007   1.000   4.000                 4   54    1
                   0.020  -1.000   1.000                 5   58    5
                   0.020   1.000   1.000                 6   62    5
  16 Mg  3 Al Al       *       *       *  12.000    3
                   0.007  -1.000   1.000                 1   40    1
                   0.007   1.000   1.000                 2   46    1
                   0.007   1.000   4.000                 3   55    1
  17 Mg  3 Al Si       *       *       *  12.000    4
                   0.007  -1.000   1.000                 1   41    1
                   0.007   1.000   1.000                 2   47    1
                   0.007   1.000   4.000                 3   56    1
                   0.020   1.000   1.000                 4   63    4
  18 Mg  3 Si Si       *       *       *  12.000    6
                   0.007  -1.000   1.000                 1   42    1
                   0.007   1.000   1.000                 2   48    1
                   0.007  -1.000   4.000                 3   51    1
                   0.007   1.000   4.000                 4   57    1
                   0.020  -1.000   1.000                 5   59    5
                   0.020   1.000   4.000                 6   64    5
-----------------------------------------------------------------------
short range atomic symmetry functions groups of element Al
-----------------------------------------------------------------------
   1 Al  2 Mg                  *       *   8.000    3
                           0.016   0.000                 1    1
                           0.036   0.000                 2    4
                           0.082   0.000                 3    6
   2 Al  2 Al                  *       *   8.000    3
                           0.016   0.000                 1    2
                           0.062   0.000                 2    5
                           0.124   0.000                 3    8
   3 Al  2 Si                  *       *   8.000    2
                           0.016   0.000                 1    3
                           0.082   0.000                 2    7
   4 Al  2 Mg                  *       *  16.000    3
                           0.016   0.000                 1    9
                           0.091   8.000                 2   13
                           0.112  13.007                 3   16
   5 Al  2 Al                  *       *  16.000    4
                           0.016   0.000                 1   10
                           0.045  11.314                 2   12
                           0.091   8.000                 3   14
                           0.112  13.007                 4   17
   6 Al  2 Si                  *       *  16.000    3
                           0.016   0.000                 1   11
                           0.091   8.000                 2   15
                           0.112  13.007                 3   18
   7 Al  2 Mg                  *       *  20.000    5
                           0.003   0.000                 1   19
                           0.058  10.000                 2   22
                           0.071  16.259                 3   25
                           0.108  13.218                 4   28
                           0.117   7.071                 5   31
   8 Al  2 Al                  *       *  20.000    4
                           0.003   0.000                 1   20
                           0.058  10.000                 2   23
                           0.071  16.259                 3   26
                           0.108  13.218                 4   29
   9 Al  2 Si                  *       *  20.000    5
                           0.003   0.000                 1   21
                           0.058  10.000                 2   24
                           0.071  16.259                 3   27
                           0.108  13.218                 4   30
                           0.117   7.071                 5   32
  10 Al  3 Al Al       *       *       *   8.000    2
                   0.016  -1.000   1.000                 1   33    1
                   0.016   1.000   1.000                 2   35    1
  11 Al  3 Mg Al       *       *       *   8.000    1
                   0.016   1.000   1.000                 1   34    1
  12 Al  3 Al Si       *       *       *   8.000    1
                   0.016   1.000   1.000                 1   36    1
  13 Al  3 Si Si       *       *       *   8.000    1
                   0.016   1.000   1.000                 1   37    1
  14 Al  3 Mg Mg       *       *       *  12.000    5
                   0.007  -1.000   1.000                 1   38    1
                   0.007   1.000   1.000                 2   44    1
                   0.007  -1.000   4.000                 3   50    1
                   0.007   1.000   4.000                 4   53    1
                   0.020   1.000   1.000                 5   60    5
  15 Al  3 Mg Al       *       *       *  12.000    4
                   0.007  -1.000   1.000                 1   39    1
                   0.007   1.000   1.000                 2   45    1
                   0.007   1.000   4.000                 3   54    1
                   0.020   1.000   2.000                 4   63    4
  16 Al  3 Mg Si       *       *       *  12.000    5
                   0.007  -1.000   1.000                 1   40    1
                   0.007   1.000   1.000                 2   46    1
                   0.007  -1.000   4.000                 3   51    1
                   0.007   1.000   4.000                 4   55    1
                   0.020   1.000   1.000                 5   61    5
  17 Al  3 Al Al       *       *       *  12.000    3
                   0.007  -1.000   1.000                 1   41    1
                   0.007   1.000   1.000                 2   47    1
                   0.007   1.000   4.000                 3   56    1
  18 Al  3 Al Si       *       *       *  12.000    4
                   0.007  -1.000   1.000                 1   42    1
                   0.007   1.000   1.000                 2   48    1
                   0.007   1.000   4.000                 3   57    1
                   0.020   1.000   1.000                 4   62    4
  19 Al  3 Si Si       *       *       *  12.000    6
                   0.007  -1.000   1.000                 1   43    1
                   0.007   1.000   1.000                 2   49    1
                   0.007  -1.000   4.000                 3   52    1
                   0.007   1.000   4.000                 4   58    1
                   0.020  -1.000   1.000                 5   59    5
                   0.020   1.000   2.000                 6   64    5
-----------------------------------------------------------------------
short range atomic symmetry functions groups of element Si
-----------------------------------------------------------------------
   1 Si  2 Mg                  *       *   8.000    2
                           0.016   0.000                 1    1
                           0.082   0.000                 2    5
   2 Si  2 Al                  *       *   8.000    2
                           0.016   0.000                 1    2
                           0.082   0.000                 2    6
   3 Si  2 Si                  *       *   8.000    4
                           0.016   0.000                 1    3
                           0.036   0.000                 2    4
                           0.082   0.000                 3    7
                           0.124   0.000                 4    8
   4 Si  2 Mg                  *       *  16.000    3
                           0.016   0.000                 1    9
                           0.091   8.000                 2   12
                           0.112  13.007                 3   15
   5 Si  2 Al                  *       *  16.000    3
                           0.016   0.000                 1   10
                           0.091   8.000                 2   13
                           0.112  13.007                 3   16
   6 Si  2 Si                  *       *  16.000    3
                           0.021   0.000                 1   11
                           0.091   8.000                 2   14
                           0.112  13.007                 3   17
   7 Si  2 Mg                  *       *  20.000    5
                           0.003   0.000                 1   18
                           0.058  10.000                 2   21
                           0.071  16.259                 3   23
                           0.108  13.218                 4   26
                           0.117   7.071                 5   29
   8 Si  2 Al                  *       *  20.000    3
                           0.003   0.000                 1   19
                           0.071  16.259                 2   24
                           0.108  13.218                 3   27
   9 Si  2 Si                  *       *  20.000    5
                           0.003   0.000                 1   20
                           0.058  10.000                 2   22
                           0.071  16.259                 3   25
                           0.108  13.218                 4   28
                           0.117   7.071                 5   30
  10 Si  3 Mg Si       *       *       *   8.000    1
                   0.016   1.000   1.000                 1   31    1
  11 Si  3 Al Al       *       *       *   8.000    1
                   0.016   1.000   1.000                 1   32    1
  12 Si  3 Al Si       *       *       *   8.000    1
                   0.016   1.000   1.000                 1   33    1
  13 Si  3 Si Si       *       *       *   8.000    3
                   0.016   1.000   1.000                 1   34    1
                   0.016  -1.000   2.000                 2   35    1
                   0.016   1.000   8.000                 3   36    1
  14 Si  3 Mg Mg       *       *       *  12.000    6
                   0.007  -1.000   1.000                 1   37    1
                   0.007   1.000   1.000                 2   42    1
                   0.007  -1.000   4.000                 3   49    1
                   0.007   1.000   4.000                 4   53    1
                   0.020  -1.000   1.000                 5   57    5
                   0.020   1.000   1.000                 6   60    5
  15 Si  3 Mg Al       *       *       *  12.000    4
                   0.007  -1.000   1.000                 1   38    1
                   0.007   1.000   1.000                 2   43    1
                   0.007  -1.000   4.000                 3   50    1
                   0.020   1.000   1.000                 4   61    4
  16 Si  3 Mg Si       *       *       *  12.000    6
                   0.007  -1.000   1.000                 1   39    1
                   0.007   1.000   1.000                 2   44    1
                   0.007  -1.000   4.000                 3   51    1
                   0.007   1.000   4.000                 4   54    1
                   0.020  -1.000   1.000                 5   58    5
                   0.020   1.000   1.000                 6   62    5
  17 Si  3 Al Al       *       *       *  12.000    2
                   0.007  -1.000   1.000                 1   40    1
                   0.007   1.000   1.000                 2   45    1
  18 Si  3 Al Si       *       *       *  12.000    4
                   0.007  -1.000   1.000                 1   41    1
                   0.007   1.000   1.000                 2   46    1
                   0.007   1.000   4.000                 3   55    1
                   0.020   1.000   4.000                 4   64    4
  19 Si  3 Si Si       *       *       *  12.000    6
                   0.007   1.000   1.000                 1   47    1
                   0.007  -1.000   2.000                 2   48    1
                   0.007  -1.000   4.000                 3   52    1
                   0.007   1.000   4.000                 4   56    1
                   0.020  -1.000   1.000                 5   59    5
                   0.020   1.000   1.000                 6   63    5
-----------------------------------------------------------------------
RuNNer pair style setup completed.
-----------------------------------------------------------------------
Neighbor list info ...
  update every 1 steps, delay 0 steps, check yes
  max neighbors/atom: 2000, page size: 100000
  master list distance cutoff = 8.93766
  ghost atom cutoff = 8.93766
  1 neighbor lists, perpetual/occasional/extra = 1 0 0
  (1) pair runner, perpetual
      attributes: full, newton on
      pair build: full/nsq
      stencil: none
      bin: none
# RuNNer EW summary: 0 0 0.000000
Per MPI rank memory allocation (min/avg/max) = 3.848 | 3.848 | 3.848 Mbytes
Step Temp PotEng Press Pxx Pyy Pzz Pxy Pxz Pyz Lx Ly Lz Volume 
       0            0   -274.46209   -636.87876   -636.87876   -636.87876   -636.87876 -7.6406139e-11 9.2112206e-10 1.0028549e-09     4.041337     4.041337     4.041337    66.004749 
# RuNNer EW summary: 1 0 0.000000
       1            0    -274.4621   -402.21883   -402.21883   -402.21883   -402.21883 3.4596747e-07 3.460143e-07 3.4589244e-07    4.0409328    4.0409328    4.0409328     65.98495 
# RuNNer EW summary: 2 0 0.000000
       2            0    -274.4621   -167.18448   -167.18448   -167.18448   -167.18448  8.16154e-07 8.169985e-07 8.1714986e-07    4.0405287    4.0405287    4.0405287    65.965154 
# RuNNer EW summary: 3 0 0.000000
# RuNNer EW summary: 3 0 0.000000
       3            0    -274.4621    18.838274    18.838274    18.838274    18.838274 1.4358408e-06 1.4351732e-06 1.4355826e-06    4.0402092    4.0402092    4.0402092    65.949508 
# RuNNer EW summary: 4 0 0.000000
# RuNNer EW summary: 4 0 0.000000
       4            0   -274.46211  0.014118937  0.014118937  0.014118938  0.014118937 -5.8978826e-06 -5.8979883e-06 -5.898006e-06    4.0402401    4.0402401    4.0402401    65.951022 
# RuNNer EW summary: 5 0 0.000000
# RuNNer EW summary: 5 0 0.000000
       5            0   -274.46211 -0.021204581 -0.021204582 -0.021204581 -0.021204581 -7.6062322e-06 -7.6063451e-06 -7.6061302e-06    4.0402402    4.0402402    4.0402402    65.951025 
# RuNNer EW summary: 6 0 0.000000
# RuNNer EW summary: 6 0 0.000000
       6            0   -274.46211  0.076049147  0.076049148  0.076049147  0.076049148 -1.222366e-05 -1.2223303e-05 -1.2223619e-05      4.04024      4.04024      4.04024    65.951017 
# RuNNer EW summary: 7 0 0.000000
# RuNNer EW summary: 7 0 0.000000
       7            0   -274.46211 -4.578573e-05 -4.5784943e-05 -4.5786084e-05 -4.5786161e-05 -1.6324945e-05 -1.6325561e-05 -1.6325099e-05    4.0402402    4.0402402    4.0402402    65.951024 
# RuNNer EW summary: 8 0 0.000000
# RuNNer EW summary: 8 0 0.000000
       8            0   -274.46211 -0.00041795112 -0.00041795635 -0.00041794887 -0.00041794813 -2.5862921e-05 -2.5862497e-05 -2.5862364e-05    4.0402402    4.0402402    4.0402402    65.951024 
# RuNNer EW summary: 9 0 0.000000
# RuNNer EW summary: 9 0 0.000000
       9            0   -274.46211 3.4436743e-05 3.4433767e-05 3.4438197e-05 3.4438265e-05 -2.5872893e-05 -2.587306e-05 -2.5873142e-05    4.0402402    4.0402402    4.0402402    65.951024 
# RuNNer EW summary: 10 0 0.000000
# RuNNer EW summary: 10 0 0.000000
      10            0   -274.46211 4.185804e-07 4.2409224e-07 4.1594088e-07 4.1570806e-07 -2.5887141e-05 -2.5886187e-05 -2.5886377e-05    4.0402402    4.0402402    4.0402402    65.951024 
# RuNNer EW summary: 11 0 0.000000
# RuNNer EW summary: 11 0 0.000000
      11            0   -274.46211 -6.7444686e-06 -6.7654253e-06 -6.7345443e-06 -6.7334363e-06 -2.5892686e-05 -2.5893136e-05 -2.5893224e-05    4.0402402    4.0402402    4.0402402    65.951024 
# RuNNer EW summary: 12 0 0.000000
# RuNNer EW summary: 12 0 0.000000
# RuNNer EW summary: 12 0 0.000000
      12            0   -274.46211 -9.3671666e-10 -2.5678464e-08 1.0760306e-08 1.2108008e-08 -2.5896098e-05 -2.5895913e-05 -2.5895755e-05    4.0402402    4.0402402    4.0402402    65.951024 
Loop time of 0.0684881 on 1 procs for 12 steps with 4 atoms

80.9% CPU use with 1 MPI tasks x 1 OpenMP threads

Minimization stats:
  Stopping criterion = force tolerance
  Energy initial, next-to-last, final = 
        -274.462093252     -274.462105058     -274.462105058
  Force two-norm initial, final = 0.0456777 2.03746e-11
  Force max component initial, final = 0.0262374 6.42554e-12
  Final line search alpha, max atom move = 1 6.42554e-12
  Iterations, force evaluations = 12 22

MPI task timing breakdown:
Section |  min time  |  avg time  |  max time  |%varavg| %total
---------------------------------------------------------------
Pair    | 0.067945   | 0.067945   | 0.067945   |   0.0 | 99.21
Neigh   | 0          | 0          | 0          |   0.0 |  0.00
Comm    | 0.00010991 | 0.00010991 | 0.00010991 |   0.0 |  0.16
Output  | 0.00015807 | 0.00015807 | 0.00015807 |   0.0 |  0.23
Modify  | 0          | 0          | 0          |   0.0 |  0.00
Other   |            | 0.0002756  |            |       |  0.40

Nlocal:    4 ave 4 max 4 min
Histogram: 1 0 0 0 0 0 0 0 0 0
Nghost:    662 ave 662 max 662 min
Histogram: 1 0 0 0 0 0 0 0 0 0
Neighs:    0 ave 0 max 0 min
Histogram: 1 0 0 0 0 0 0 0 0 0
FullNghs:  704 ave 704 max 704 min
Histogram: 1 0 0 0 0 0 0 0 0 0

Total # of neighbors = 704
Ave neighs/atom = 176
Neighbor list builds = 0
Dangerous builds = 0

variable tmp equal pxx
variable pxx0 equal ${tmp}
variable pxx0 equal -2.56784637103893e-08
variable tmp equal pyy
variable pyy0 equal ${tmp}
variable pyy0 equal 1.07603061272872e-08
variable tmp equal pzz
variable pzz0 equal ${tmp}
variable pzz0 equal 1.21080076062712e-08
variable tmp equal pyz
variable pyz0 equal ${tmp}
variable pyz0 equal -2.58957553286544e-05
variable tmp equal pxz
variable pxz0 equal ${tmp}
variable pxz0 equal -2.58959132100327e-05
variable tmp equal pxy
variable pxy0 equal ${tmp}
variable pxy0 equal -2.58960980306998e-05

variable tmp equal lx
variable lx0 equal ${tmp}
variable lx0 equal 4.0402401511355
variable tmp equal ly
variable ly0 equal ${tmp}
variable ly0 equal 4.04024015113527
variable tmp equal lz
variable lz0 equal ${tmp}
variable lz0 equal 4.04024015113527

# These formulas define the derivatives w.r.t. strain components
# Constants uses $, variables use v_
variable d1 equal -(v_pxx1-${pxx0})/(v_delta/v_len0)*${cfac}
variable d1 equal -(v_pxx1--2.56784637103893e-08)/(v_delta/v_len0)*${cfac}
variable d1 equal -(v_pxx1--2.56784637103893e-08)/(v_delta/v_len0)*0.0001
variable d2 equal -(v_pyy1-${pyy0})/(v_delta/v_len0)*${cfac}
variable d2 equal -(v_pyy1-1.07603061272872e-08)/(v_delta/v_len0)*${cfac}
variable d2 equal -(v_pyy1-1.07603061272872e-08)/(v_delta/v_len0)*0.0001
variable d3 equal -(v_pzz1-${pzz0})/(v_delta/v_len0)*${cfac}
variable d3 equal -(v_pzz1-1.21080076062712e-08)/(v_delta/v_len0)*${cfac}
variable d3 equal -(v_pzz1-1.21080076062712e-08)/(v_delta/v_len0)*0.0001
variable d4 equal -(v_pyz1-${pyz0})/(v_delta/v_len0)*${cfac}
variable d4 equal -(v_pyz1--2.58957553286544e-05)/(v_delta/v_len0)*${cfac}
variable d4 equal -(v_pyz1--2.58957553286544e-05)/(v_delta/v_len0)*0.0001
variable d5 equal -(v_pxz1-${pxz0})/(v_delta/v_len0)*${cfac}
variable d5 equal -(v_pxz1--2.58959132100327e-05)/(v_delta/v_len0)*${cfac}
variable d5 equal -(v_pxz1--2.58959132100327e-05)/(v_delta/v_len0)*0.0001
variable d6 equal -(v_pxy1-${pxy0})/(v_delta/v_len0)*${cfac}
variable d6 equal -(v_pxy1--2.58960980306998e-05)/(v_delta/v_len0)*${cfac}
variable d6 equal -(v_pxy1--2.58960980306998e-05)/(v_delta/v_len0)*0.0001

displace_atoms all random ${atomjiggle} ${atomjiggle} ${atomjiggle} 87287 units box
displace_atoms all random 1e-05 ${atomjiggle} ${atomjiggle} 87287 units box
displace_atoms all random 1e-05 1e-05 ${atomjiggle} 87287 units box
displace_atoms all random 1e-05 1e-05 1e-05 87287 units box

# Write restart
unfix 3
write_restart restart.equil

# uxx Perturbation

variable dir equal 1
include displace.mod
# NOTE: This script should not need to be
# modified. See in.elastic for more info.
#
# Find which reference length to use

if "${dir} == 1" then    "variable len0 equal ${lx0}"
variable len0 equal ${lx0}
variable len0 equal 4.0402401511355
if "${dir} == 2" then    "variable len0 equal ${ly0}"
if "${dir} == 3" then    "variable len0 equal ${lz0}"
if "${dir} == 4" then    "variable len0 equal ${lz0}"
if "${dir} == 5" then    "variable len0 equal ${lz0}"
if "${dir} == 6" then    "variable len0 equal ${ly0}"

# Reset box and simulation parameters

clear
OMP_NUM_THREADS environment is not set. Defaulting to 1 thread. (../comm.cpp:90)
  using 1 OpenMP thread(s) per MPI task
box tilt large
read_restart restart.equil
  triclinic box = (0.000548402 0.000548402 0.000548402) to (4.04079 4.04079 4.04079) with tilt (2.23158e-17 5.12792e-16 2.3114e-16)
  1 by 1 by 1 MPI processor grid
  4 atoms
include potential.mod
# NOTE: This script can be modified for different pair styles
# See in.elastic for more info.

# Choose potential
#pair_style	sw
#pair_coeff * * Si.sw Si
#mass 1 24.305
#mass 2 26.9815385
#mass 3 28.0855

# Runner pot
variable runnerDir string "rv64_1"
variable runnerDir string "/home/glensk/Dropbox/Albert/scripts/dotfiles/scripts/potentials/runner_v2dg"
pair_style runner dir ${runnerDir} showewsum 1 showew yes resetew no maxew 1000000
pair_style runner dir /home/glensk/Dropbox/Albert/scripts/dotfiles/scripts/potentials/runner_v2dg showewsum 1 showew yes resetew no maxew 1000000
RuNNer pair style directory           : /home/glensk/Dropbox/Albert/scripts/dotfiles/scripts/potentials/runner_v2dg/
Show extrapolation warnings           : yes
Show extrapolation warning summary    : every 1 timesteps
Reset extrapolation warning counter   : no
Maximum allowed extrapolation warnings: 1000000
pair_coeff * * 7.937658735


# NN POT n2p2
#variable nnpDir string "/home/glensk/Dropbox/Albert/scripts/dotfiles/scripts/potentials/n2p2_v1ag"
#variable nnpDir string "/home/glensk/Dropbox/Albert/scripts/dotfiles/scripts/potentials/n2p2_v2ag"
#pair_style nnp dir ${nnpDir} showew no resetew yes maxew 100000000 cflength 1.8897261328 cfenergy 0.0367493254
#pair_coeff * * 11.0

#pair_style eam/alloy
#pair_coeff * * Al.eam.alloy_cutoff6_seed_127519_std_0.715638 Al
#pair_coeff * * Al99.eam.alloy Al

#pair_style meam/alloy
#pair_style meam
#pair_coeff * * library.meam Al meam.alsimgcufe Al

# Setup neighbor style
neighbor 1.0 nsq
neigh_modify once no every 1 delay 0 check yes

# Setup minimization style
min_style	     cg
min_modify	     dmax ${dmax} line quadratic
min_modify	     dmax 0.001 line quadratic

# Setup output
thermo		1
thermo_style custom step temp pe press pxx pyy pzz pxy pxz pyz lx ly lz vol
thermo_modify norm no

# Negative deformation

variable delta equal -${up}*${len0}
variable delta equal -1e-05*${len0}
variable delta equal -1e-05*4.0402401511355
variable deltaxy equal -${up}*xy
variable deltaxy equal -1e-05*xy
variable deltaxz equal -${up}*xz
variable deltaxz equal -1e-05*xz
variable deltayz equal -${up}*yz
variable deltayz equal -1e-05*yz
if "${dir} == 1" then    "change_box all x delta 0 ${delta} xy delta ${deltaxy} xz delta ${deltaxz} remap units box"
change_box all x delta 0 ${delta} xy delta ${deltaxy} xz delta ${deltaxz} remap units box
change_box all x delta 0 -4.0402401511355e-05 xy delta ${deltaxy} xz delta ${deltaxz} remap units box
change_box all x delta 0 -4.0402401511355e-05 xy delta -2.23157523009526e-22 xz delta ${deltaxz} remap units box
change_box all x delta 0 -4.0402401511355e-05 xy delta -2.23157523009526e-22 xz delta -5.12791822943243e-21 remap units box
  triclinic box = (0.000548402 0.000548402 0.000548402) to (4.04075 4.04079 4.04079) with tilt (2.23158e-17 5.12792e-16 2.3114e-16)
  triclinic box = (0.000548402 0.000548402 0.000548402) to (4.04075 4.04079 4.04079) with tilt (2.23155e-17 5.12792e-16 2.3114e-16)
  triclinic box = (0.000548402 0.000548402 0.000548402) to (4.04075 4.04079 4.04079) with tilt (2.23155e-17 5.12787e-16 2.3114e-16)
if "${dir} == 2" then    "change_box all y delta 0 ${delta} yz delta ${deltayz} remap units box"
if "${dir} == 3" then    "change_box all z delta 0 ${delta} remap units box"
if "${dir} == 4" then    "change_box all yz delta ${delta} remap units box"
if "${dir} == 5" then    "change_box all xz delta ${delta} remap units box"
if "${dir} == 6" then    "change_box all xy delta ${delta} remap units box"

# Relax atoms positions

minimize ${etol} ${ftol} ${maxiter} ${maxeval}
minimize 0 ${ftol} ${maxiter} ${maxeval}
minimize 0 1e-10 ${maxiter} ${maxeval}
minimize 0 1e-10 100 ${maxeval}
minimize 0 1e-10 100 1000
-----------------------------------------------------------------------
Starting RuNNer pair style setup...
-----------------------------------------------------------------------
Analyzing input.nn...
-----------------------------------------------------------------------
Number of elements:  3
Element  0: Mg (12)
Element  1: Al (13)
Element  2: Si (14)
-----------------------------------------------------------------------
Free atom energy of element  1 (Al) =  -2.40923540E+00
-----------------------------------------------------------------------
Free atom energy of element  0 (Mg) =  -6.26068620E+01
-----------------------------------------------------------------------
Free atom energy of element  2 (Si) =  -5.55978350E+00
-----------------------------------------------------------------------
Number of hidden layers:  2
-----------------------------------------------------------------------
Element  0 (Mg): layer  0:  24 nodes
Element  0 (Mg): layer  1:  24 nodes
Element  0 (Mg): layer  2:   1 nodes
Element  1 (Al): layer  0:  24 nodes
Element  1 (Al): layer  1:  24 nodes
Element  1 (Al): layer  2:   1 nodes
Element  2 (Si): layer  0:  24 nodes
Element  2 (Si): layer  1:  24 nodes
Element  2 (Si): layer  2:   1 nodes
Element  0 (Mg): layer  0: activation function:  2
Element  0 (Mg): layer  1: activation function:  2
Element  0 (Mg): layer  2: activation function:  1
Element  1 (Al): layer  0: activation function:  2
Element  1 (Al): layer  1: activation function:  2
Element  1 (Al): layer  2: activation function:  1
Element  2 (Si): layer  0: activation function:  2
Element  2 (Si): layer  1: activation function:  2
Element  2 (Si): layer  2: activation function:  1
-----------------------------------------------------------------------
cutoff type = 2
-----------------------------------------------------------------------
Element  0 (Mg): 64 symmetry functions
Element  1 (Al): 64 symmetry functions
Element  2 (Si): 64 symmetry functions
-----------------------------------------------------------------------
Finished analyzing input.nn.
-----------------------------------------------------------------------
Element  0 (Mg): layer  0 allocated, dim: ( 64, 24), act. func.:  2
Element  0 (Mg): layer  1 allocated, dim: ( 24, 24), act. func.:  2
Element  0 (Mg): layer  2 allocated, dim: ( 24,  1), act. func.:  1
Element  1 (Al): layer  0 allocated, dim: ( 64, 24), act. func.:  2
Element  1 (Al): layer  1 allocated, dim: ( 24, 24), act. func.:  2
Element  1 (Al): layer  2 allocated, dim: ( 24,  1), act. func.:  1
Element  2 (Si): layer  0 allocated, dim: ( 64, 24), act. func.:  2
Element  2 (Si): layer  1 allocated, dim: ( 24, 24), act. func.:  2
Element  2 (Si): layer  2 allocated, dim: ( 24,  1), act. func.:  1
-----------------------------------------------------------------------
Element  0 (Mg): Reading /home/glensk/Dropbox/Albert/scripts/dotfiles/scripts/potentials/runner_v2dg/weights.012.data...
Element  0 (Mg): weights:   2136, bias:   49, total:   2185
Element  1 (Al): Reading /home/glensk/Dropbox/Albert/scripts/dotfiles/scripts/potentials/runner_v2dg/weights.013.data...
Element  1 (Al): weights:   2136, bias:   49, total:   2185
Element  2 (Si): Reading /home/glensk/Dropbox/Albert/scripts/dotfiles/scripts/potentials/runner_v2dg/weights.014.data...
Element  2 (Si): weights:   2136, bias:   49, total:   2185
-----------------------------------------------------------------------
Sorting according to   type.
Sorting according to     rc.
Sorting according to    eta.
Sorting according to   zeta.
Sorting according to lambda.
Sorting according to     rs.
Sorting according to     e1.
Sorting according to     e2.
Printing symmetry functions...
-----------------------------------------------------------------------
short range atomic symmetry functions element Mg
-----------------------------------------------------------------------
   1 Mg  2 Mg              0.016   0.000   8.000
   2 Mg  2 Al              0.016   0.000   8.000
   3 Mg  2 Si              0.016   0.000   8.000
   4 Mg  2 Al              0.036   0.000   8.000
   5 Mg  2 Si              0.036   0.000   8.000
   6 Mg  2 Mg              0.062   0.000   8.000
   7 Mg  2 Al              0.082   0.000   8.000
   8 Mg  2 Si              0.082   0.000   8.000
   9 Mg  2 Mg              0.124   0.000   8.000
  10 Mg  2 Mg              0.016   0.000  16.000
  11 Mg  2 Al              0.016   0.000  16.000
  12 Mg  2 Si              0.016   0.000  16.000
  13 Mg  2 Mg              0.045  11.314  16.000
  14 Mg  2 Si              0.045  11.314  16.000
  15 Mg  2 Mg              0.091   8.000  16.000
  16 Mg  2 Al              0.091   8.000  16.000
  17 Mg  2 Mg              0.112  13.007  16.000
  18 Mg  2 Al              0.112  13.007  16.000
  19 Mg  2 Si              0.112  13.007  16.000
  20 Mg  2 Mg              0.003   0.000  20.000
  21 Mg  2 Al              0.003   0.000  20.000
  22 Mg  2 Si              0.003   0.000  20.000
  23 Mg  2 Si              0.029  14.142  20.000
  24 Mg  2 Mg              0.058  10.000  20.000
  25 Mg  2 Al              0.058  10.000  20.000
  26 Mg  2 Mg              0.071  16.259  20.000
  27 Mg  2 Al              0.071  16.259  20.000
  28 Mg  2 Si              0.071  16.259  20.000
  29 Mg  2 Mg              0.108  13.218  20.000
  30 Mg  2 Al              0.108  13.218  20.000
  31 Mg  2 Si              0.108  13.218  20.000
  32 Mg  2 Mg              0.117   7.071  20.000
  33 Mg  2 Si              0.117   7.071  20.000
  34 Mg  3 Mg Si   0.016   1.000   1.000   8.000
  35 Mg  3 Al Al   0.016   1.000   1.000   8.000
  36 Mg  3 Si Si   0.016   1.000   1.000   8.000
  37 Mg  3 Mg Mg   0.007  -1.000   1.000  12.000
  38 Mg  3 Mg Al   0.007  -1.000   1.000  12.000
  39 Mg  3 Mg Si   0.007  -1.000   1.000  12.000
  40 Mg  3 Al Al   0.007  -1.000   1.000  12.000
  41 Mg  3 Al Si   0.007  -1.000   1.000  12.000
  42 Mg  3 Si Si   0.007  -1.000   1.000  12.000
  43 Mg  3 Mg Mg   0.007   1.000   1.000  12.000
  44 Mg  3 Mg Al   0.007   1.000   1.000  12.000
  45 Mg  3 Mg Si   0.007   1.000   1.000  12.000
  46 Mg  3 Al Al   0.007   1.000   1.000  12.000
  47 Mg  3 Al Si   0.007   1.000   1.000  12.000
  48 Mg  3 Si Si   0.007   1.000   1.000  12.000
  49 Mg  3 Mg Mg   0.007  -1.000   4.000  12.000
  50 Mg  3 Mg Si   0.007  -1.000   4.000  12.000
  51 Mg  3 Si Si   0.007  -1.000   4.000  12.000
  52 Mg  3 Mg Mg   0.007   1.000   4.000  12.000
  53 Mg  3 Mg Al   0.007   1.000   4.000  12.000
  54 Mg  3 Mg Si   0.007   1.000   4.000  12.000
  55 Mg  3 Al Al   0.007   1.000   4.000  12.000
  56 Mg  3 Al Si   0.007   1.000   4.000  12.000
  57 Mg  3 Si Si   0.007   1.000   4.000  12.000
  58 Mg  3 Mg Si   0.020  -1.000   1.000  12.000
  59 Mg  3 Si Si   0.020  -1.000   1.000  12.000
  60 Mg  3 Mg Mg   0.020   1.000   1.000  12.000
  61 Mg  3 Mg Al   0.020   1.000   1.000  12.000
  62 Mg  3 Mg Si   0.020   1.000   1.000  12.000
  63 Mg  3 Al Si   0.020   1.000   1.000  12.000
  64 Mg  3 Si Si   0.020   1.000   4.000  12.000
-----------------------------------------------------------------------
short range atomic symmetry functions element Al
-----------------------------------------------------------------------
   1 Al  2 Mg              0.016   0.000   8.000
   2 Al  2 Al              0.016   0.000   8.000
   3 Al  2 Si              0.016   0.000   8.000
   4 Al  2 Mg              0.036   0.000   8.000
   5 Al  2 Al              0.062   0.000   8.000
   6 Al  2 Mg              0.082   0.000   8.000
   7 Al  2 Si              0.082   0.000   8.000
   8 Al  2 Al              0.124   0.000   8.000
   9 Al  2 Mg              0.016   0.000  16.000
  10 Al  2 Al              0.016   0.000  16.000
  11 Al  2 Si              0.016   0.000  16.000
  12 Al  2 Al              0.045  11.314  16.000
  13 Al  2 Mg              0.091   8.000  16.000
  14 Al  2 Al              0.091   8.000  16.000
  15 Al  2 Si              0.091   8.000  16.000
  16 Al  2 Mg              0.112  13.007  16.000
  17 Al  2 Al              0.112  13.007  16.000
  18 Al  2 Si              0.112  13.007  16.000
  19 Al  2 Mg              0.003   0.000  20.000
  20 Al  2 Al              0.003   0.000  20.000
  21 Al  2 Si              0.003   0.000  20.000
  22 Al  2 Mg              0.058  10.000  20.000
  23 Al  2 Al              0.058  10.000  20.000
  24 Al  2 Si              0.058  10.000  20.000
  25 Al  2 Mg              0.071  16.259  20.000
  26 Al  2 Al              0.071  16.259  20.000
  27 Al  2 Si              0.071  16.259  20.000
  28 Al  2 Mg              0.108  13.218  20.000
  29 Al  2 Al              0.108  13.218  20.000
  30 Al  2 Si              0.108  13.218  20.000
  31 Al  2 Mg              0.117   7.071  20.000
  32 Al  2 Si              0.117   7.071  20.000
  33 Al  3 Al Al   0.016  -1.000   1.000   8.000
  34 Al  3 Mg Al   0.016   1.000   1.000   8.000
  35 Al  3 Al Al   0.016   1.000   1.000   8.000
  36 Al  3 Al Si   0.016   1.000   1.000   8.000
  37 Al  3 Si Si   0.016   1.000   1.000   8.000
  38 Al  3 Mg Mg   0.007  -1.000   1.000  12.000
  39 Al  3 Mg Al   0.007  -1.000   1.000  12.000
  40 Al  3 Mg Si   0.007  -1.000   1.000  12.000
  41 Al  3 Al Al   0.007  -1.000   1.000  12.000
  42 Al  3 Al Si   0.007  -1.000   1.000  12.000
  43 Al  3 Si Si   0.007  -1.000   1.000  12.000
  44 Al  3 Mg Mg   0.007   1.000   1.000  12.000
  45 Al  3 Mg Al   0.007   1.000   1.000  12.000
  46 Al  3 Mg Si   0.007   1.000   1.000  12.000
  47 Al  3 Al Al   0.007   1.000   1.000  12.000
  48 Al  3 Al Si   0.007   1.000   1.000  12.000
  49 Al  3 Si Si   0.007   1.000   1.000  12.000
  50 Al  3 Mg Mg   0.007  -1.000   4.000  12.000
  51 Al  3 Mg Si   0.007  -1.000   4.000  12.000
  52 Al  3 Si Si   0.007  -1.000   4.000  12.000
  53 Al  3 Mg Mg   0.007   1.000   4.000  12.000
  54 Al  3 Mg Al   0.007   1.000   4.000  12.000
  55 Al  3 Mg Si   0.007   1.000   4.000  12.000
  56 Al  3 Al Al   0.007   1.000   4.000  12.000
  57 Al  3 Al Si   0.007   1.000   4.000  12.000
  58 Al  3 Si Si   0.007   1.000   4.000  12.000
  59 Al  3 Si Si   0.020  -1.000   1.000  12.000
  60 Al  3 Mg Mg   0.020   1.000   1.000  12.000
  61 Al  3 Mg Si   0.020   1.000   1.000  12.000
  62 Al  3 Al Si   0.020   1.000   1.000  12.000
  63 Al  3 Mg Al   0.020   1.000   2.000  12.000
  64 Al  3 Si Si   0.020   1.000   2.000  12.000
-----------------------------------------------------------------------
short range atomic symmetry functions element Si
-----------------------------------------------------------------------
   1 Si  2 Mg              0.016   0.000   8.000
   2 Si  2 Al              0.016   0.000   8.000
   3 Si  2 Si              0.016   0.000   8.000
   4 Si  2 Si              0.036   0.000   8.000
   5 Si  2 Mg              0.082   0.000   8.000
   6 Si  2 Al              0.082   0.000   8.000
   7 Si  2 Si              0.082   0.000   8.000
   8 Si  2 Si              0.124   0.000   8.000
   9 Si  2 Mg              0.016   0.000  16.000
  10 Si  2 Al              0.016   0.000  16.000
  11 Si  2 Si              0.021   0.000  16.000
  12 Si  2 Mg              0.091   8.000  16.000
  13 Si  2 Al              0.091   8.000  16.000
  14 Si  2 Si              0.091   8.000  16.000
  15 Si  2 Mg              0.112  13.007  16.000
  16 Si  2 Al              0.112  13.007  16.000
  17 Si  2 Si              0.112  13.007  16.000
  18 Si  2 Mg              0.003   0.000  20.000
  19 Si  2 Al              0.003   0.000  20.000
  20 Si  2 Si              0.003   0.000  20.000
  21 Si  2 Mg              0.058  10.000  20.000
  22 Si  2 Si              0.058  10.000  20.000
  23 Si  2 Mg              0.071  16.259  20.000
  24 Si  2 Al              0.071  16.259  20.000
  25 Si  2 Si              0.071  16.259  20.000
  26 Si  2 Mg              0.108  13.218  20.000
  27 Si  2 Al              0.108  13.218  20.000
  28 Si  2 Si              0.108  13.218  20.000
  29 Si  2 Mg              0.117   7.071  20.000
  30 Si  2 Si              0.117   7.071  20.000
  31 Si  3 Mg Si   0.016   1.000   1.000   8.000
  32 Si  3 Al Al   0.016   1.000   1.000   8.000
  33 Si  3 Al Si   0.016   1.000   1.000   8.000
  34 Si  3 Si Si   0.016   1.000   1.000   8.000
  35 Si  3 Si Si   0.016  -1.000   2.000   8.000
  36 Si  3 Si Si   0.016   1.000   8.000   8.000
  37 Si  3 Mg Mg   0.007  -1.000   1.000  12.000
  38 Si  3 Mg Al   0.007  -1.000   1.000  12.000
  39 Si  3 Mg Si   0.007  -1.000   1.000  12.000
  40 Si  3 Al Al   0.007  -1.000   1.000  12.000
  41 Si  3 Al Si   0.007  -1.000   1.000  12.000
  42 Si  3 Mg Mg   0.007   1.000   1.000  12.000
  43 Si  3 Mg Al   0.007   1.000   1.000  12.000
  44 Si  3 Mg Si   0.007   1.000   1.000  12.000
  45 Si  3 Al Al   0.007   1.000   1.000  12.000
  46 Si  3 Al Si   0.007   1.000   1.000  12.000
  47 Si  3 Si Si   0.007   1.000   1.000  12.000
  48 Si  3 Si Si   0.007  -1.000   2.000  12.000
  49 Si  3 Mg Mg   0.007  -1.000   4.000  12.000
  50 Si  3 Mg Al   0.007  -1.000   4.000  12.000
  51 Si  3 Mg Si   0.007  -1.000   4.000  12.000
  52 Si  3 Si Si   0.007  -1.000   4.000  12.000
  53 Si  3 Mg Mg   0.007   1.000   4.000  12.000
  54 Si  3 Mg Si   0.007   1.000   4.000  12.000
  55 Si  3 Al Si   0.007   1.000   4.000  12.000
  56 Si  3 Si Si   0.007   1.000   4.000  12.000
  57 Si  3 Mg Mg   0.020  -1.000   1.000  12.000
  58 Si  3 Mg Si   0.020  -1.000   1.000  12.000
  59 Si  3 Si Si   0.020  -1.000   1.000  12.000
  60 Si  3 Mg Mg   0.020   1.000   1.000  12.000
  61 Si  3 Mg Al   0.020   1.000   1.000  12.000
  62 Si  3 Mg Si   0.020   1.000   1.000  12.000
  63 Si  3 Si Si   0.020   1.000   1.000  12.000
  64 Si  3 Al Si   0.020   1.000   4.000  12.000
-----------------------------------------------------------------------
Reading scaling.data...
Finished reading scaling.data.
-----------------------------------------------------------------------
rcmax = 20.000000
-----------------------------------------------------------------------
Grouping symmetry functions...
Printing symmetry function groups...
-----------------------------------------------------------------------
short range atomic symmetry functions groups of element Mg
-----------------------------------------------------------------------
   1 Mg  2 Mg                  *       *   8.000    3
                           0.016   0.000                 1    1
                           0.062   0.000                 2    6
                           0.124   0.000                 3    9
   2 Mg  2 Al                  *       *   8.000    3
                           0.016   0.000                 1    2
                           0.036   0.000                 2    4
                           0.082   0.000                 3    7
   3 Mg  2 Si                  *       *   8.000    3
                           0.016   0.000                 1    3
                           0.036   0.000                 2    5
                           0.082   0.000                 3    8
   4 Mg  2 Mg                  *       *  16.000    4
                           0.016   0.000                 1   10
                           0.045  11.314                 2   13
                           0.091   8.000                 3   15
                           0.112  13.007                 4   17
   5 Mg  2 Al                  *       *  16.000    3
                           0.016   0.000                 1   11
                           0.091   8.000                 2   16
                           0.112  13.007                 3   18
   6 Mg  2 Si                  *       *  16.000    3
                           0.016   0.000                 1   12
                           0.045  11.314                 2   14
                           0.112  13.007                 3   19
   7 Mg  2 Mg                  *       *  20.000    5
                           0.003   0.000                 1   20
                           0.058  10.000                 2   24
                           0.071  16.259                 3   26
                           0.108  13.218                 4   29
                           0.117   7.071                 5   32
   8 Mg  2 Al                  *       *  20.000    4
                           0.003   0.000                 1   21
                           0.058  10.000                 2   25
                           0.071  16.259                 3   27
                           0.108  13.218                 4   30
   9 Mg  2 Si                  *       *  20.000    5
                           0.003   0.000                 1   22
                           0.029  14.142                 2   23
                           0.071  16.259                 3   28
                           0.108  13.218                 4   31
                           0.117   7.071                 5   33
  10 Mg  3 Mg Si       *       *       *   8.000    1
                   0.016   1.000   1.000                 1   34    1
  11 Mg  3 Al Al       *       *       *   8.000    1
                   0.016   1.000   1.000                 1   35    1
  12 Mg  3 Si Si       *       *       *   8.000    1
                   0.016   1.000   1.000                 1   36    1
  13 Mg  3 Mg Mg       *       *       *  12.000    5
                   0.007  -1.000   1.000                 1   37    1
                   0.007   1.000   1.000                 2   43    1
                   0.007  -1.000   4.000                 3   49    1
                   0.007   1.000   4.000                 4   52    1
                   0.020   1.000   1.000                 5   60    5
  14 Mg  3 Mg Al       *       *       *  12.000    4
                   0.007  -1.000   1.000                 1   38    1
                   0.007   1.000   1.000                 2   44    1
                   0.007   1.000   4.000                 3   53    1
                   0.020   1.000   1.000                 4   61    4
  15 Mg  3 Mg Si       *       *       *  12.000    6
                   0.007  -1.000   1.000                 1   39    1
                   0.007   1.000   1.000                 2   45    1
                   0.007  -1.000   4.000                 3   50    1
                   0.007   1.000   4.000                 4   54    1
                   0.020  -1.000   1.000                 5   58    5
                   0.020   1.000   1.000                 6   62    5
  16 Mg  3 Al Al       *       *       *  12.000    3
                   0.007  -1.000   1.000                 1   40    1
                   0.007   1.000   1.000                 2   46    1
                   0.007   1.000   4.000                 3   55    1
  17 Mg  3 Al Si       *       *       *  12.000    4
                   0.007  -1.000   1.000                 1   41    1
                   0.007   1.000   1.000                 2   47    1
                   0.007   1.000   4.000                 3   56    1
                   0.020   1.000   1.000                 4   63    4
  18 Mg  3 Si Si       *       *       *  12.000    6
                   0.007  -1.000   1.000                 1   42    1
                   0.007   1.000   1.000                 2   48    1
                   0.007  -1.000   4.000                 3   51    1
                   0.007   1.000   4.000                 4   57    1
                   0.020  -1.000   1.000                 5   59    5
                   0.020   1.000   4.000                 6   64    5
-----------------------------------------------------------------------
short range atomic symmetry functions groups of element Al
-----------------------------------------------------------------------
   1 Al  2 Mg                  *       *   8.000    3
                           0.016   0.000                 1    1
                           0.036   0.000                 2    4
                           0.082   0.000                 3    6
   2 Al  2 Al                  *       *   8.000    3
                           0.016   0.000                 1    2
                           0.062   0.000                 2    5
                           0.124   0.000                 3    8
   3 Al  2 Si                  *       *   8.000    2
                           0.016   0.000                 1    3
                           0.082   0.000                 2    7
   4 Al  2 Mg                  *       *  16.000    3
                           0.016   0.000                 1    9
                           0.091   8.000                 2   13
                           0.112  13.007                 3   16
   5 Al  2 Al                  *       *  16.000    4
                           0.016   0.000                 1   10
                           0.045  11.314                 2   12
                           0.091   8.000                 3   14
                           0.112  13.007                 4   17
   6 Al  2 Si                  *       *  16.000    3
                           0.016   0.000                 1   11
                           0.091   8.000                 2   15
                           0.112  13.007                 3   18
   7 Al  2 Mg                  *       *  20.000    5
                           0.003   0.000                 1   19
                           0.058  10.000                 2   22
                           0.071  16.259                 3   25
                           0.108  13.218                 4   28
                           0.117   7.071                 5   31
   8 Al  2 Al                  *       *  20.000    4
                           0.003   0.000                 1   20
                           0.058  10.000                 2   23
                           0.071  16.259                 3   26
                           0.108  13.218                 4   29
   9 Al  2 Si                  *       *  20.000    5
                           0.003   0.000                 1   21
                           0.058  10.000                 2   24
                           0.071  16.259                 3   27
                           0.108  13.218                 4   30
                           0.117   7.071                 5   32
  10 Al  3 Al Al       *       *       *   8.000    2
                   0.016  -1.000   1.000                 1   33    1
                   0.016   1.000   1.000                 2   35    1
  11 Al  3 Mg Al       *       *       *   8.000    1
                   0.016   1.000   1.000                 1   34    1
  12 Al  3 Al Si       *       *       *   8.000    1
                   0.016   1.000   1.000                 1   36    1
  13 Al  3 Si Si       *       *       *   8.000    1
                   0.016   1.000   1.000                 1   37    1
  14 Al  3 Mg Mg       *       *       *  12.000    5
                   0.007  -1.000   1.000                 1   38    1
                   0.007   1.000   1.000                 2   44    1
                   0.007  -1.000   4.000                 3   50    1
                   0.007   1.000   4.000                 4   53    1
                   0.020   1.000   1.000                 5   60    5
  15 Al  3 Mg Al       *       *       *  12.000    4
                   0.007  -1.000   1.000                 1   39    1
                   0.007   1.000   1.000                 2   45    1
                   0.007   1.000   4.000                 3   54    1
                   0.020   1.000   2.000                 4   63    4
  16 Al  3 Mg Si       *       *       *  12.000    5
                   0.007  -1.000   1.000                 1   40    1
                   0.007   1.000   1.000                 2   46    1
                   0.007  -1.000   4.000                 3   51    1
                   0.007   1.000   4.000                 4   55    1
                   0.020   1.000   1.000                 5   61    5
  17 Al  3 Al Al       *       *       *  12.000    3
                   0.007  -1.000   1.000                 1   41    1
                   0.007   1.000   1.000                 2   47    1
                   0.007   1.000   4.000                 3   56    1
  18 Al  3 Al Si       *       *       *  12.000    4
                   0.007  -1.000   1.000                 1   42    1
                   0.007   1.000   1.000                 2   48    1
                   0.007   1.000   4.000                 3   57    1
                   0.020   1.000   1.000                 4   62    4
  19 Al  3 Si Si       *       *       *  12.000    6
                   0.007  -1.000   1.000                 1   43    1
                   0.007   1.000   1.000                 2   49    1
                   0.007  -1.000   4.000                 3   52    1
                   0.007   1.000   4.000                 4   58    1
                   0.020  -1.000   1.000                 5   59    5
                   0.020   1.000   2.000                 6   64    5
-----------------------------------------------------------------------
short range atomic symmetry functions groups of element Si
-----------------------------------------------------------------------
   1 Si  2 Mg                  *       *   8.000    2
                           0.016   0.000                 1    1
                           0.082   0.000                 2    5
   2 Si  2 Al                  *       *   8.000    2
                           0.016   0.000                 1    2
                           0.082   0.000                 2    6
   3 Si  2 Si                  *       *   8.000    4
                           0.016   0.000                 1    3
                           0.036   0.000                 2    4
                           0.082   0.000                 3    7
                           0.124   0.000                 4    8
   4 Si  2 Mg                  *       *  16.000    3
                           0.016   0.000                 1    9
                           0.091   8.000                 2   12
                           0.112  13.007                 3   15
   5 Si  2 Al                  *       *  16.000    3
                           0.016   0.000                 1   10
                           0.091   8.000                 2   13
                           0.112  13.007                 3   16
   6 Si  2 Si                  *       *  16.000    3
                           0.021   0.000                 1   11
                           0.091   8.000                 2   14
                           0.112  13.007                 3   17
   7 Si  2 Mg                  *       *  20.000    5
                           0.003   0.000                 1   18
                           0.058  10.000                 2   21
                           0.071  16.259                 3   23
                           0.108  13.218                 4   26
                           0.117   7.071                 5   29
   8 Si  2 Al                  *       *  20.000    3
                           0.003   0.000                 1   19
                           0.071  16.259                 2   24
                           0.108  13.218                 3   27
   9 Si  2 Si                  *       *  20.000    5
                           0.003   0.000                 1   20
                           0.058  10.000                 2   22
                           0.071  16.259                 3   25
                           0.108  13.218                 4   28
                           0.117   7.071                 5   30
  10 Si  3 Mg Si       *       *       *   8.000    1
                   0.016   1.000   1.000                 1   31    1
  11 Si  3 Al Al       *       *       *   8.000    1
                   0.016   1.000   1.000                 1   32    1
  12 Si  3 Al Si       *       *       *   8.000    1
                   0.016   1.000   1.000                 1   33    1
  13 Si  3 Si Si       *       *       *   8.000    3
                   0.016   1.000   1.000                 1   34    1
                   0.016  -1.000   2.000                 2   35    1
                   0.016   1.000   8.000                 3   36    1
  14 Si  3 Mg Mg       *       *       *  12.000    6
                   0.007  -1.000   1.000                 1   37    1
                   0.007   1.000   1.000                 2   42    1
                   0.007  -1.000   4.000                 3   49    1
                   0.007   1.000   4.000                 4   53    1
                   0.020  -1.000   1.000                 5   57    5
                   0.020   1.000   1.000                 6   60    5
  15 Si  3 Mg Al       *       *       *  12.000    4
                   0.007  -1.000   1.000                 1   38    1
                   0.007   1.000   1.000                 2   43    1
                   0.007  -1.000   4.000                 3   50    1
                   0.020   1.000   1.000                 4   61    4
  16 Si  3 Mg Si       *       *       *  12.000    6
                   0.007  -1.000   1.000                 1   39    1
                   0.007   1.000   1.000                 2   44    1
                   0.007  -1.000   4.000                 3   51    1
                   0.007   1.000   4.000                 4   54    1
                   0.020  -1.000   1.000                 5   58    5
                   0.020   1.000   1.000                 6   62    5
  17 Si  3 Al Al       *       *       *  12.000    2
                   0.007  -1.000   1.000                 1   40    1
                   0.007   1.000   1.000                 2   45    1
  18 Si  3 Al Si       *       *       *  12.000    4
                   0.007  -1.000   1.000                 1   41    1
                   0.007   1.000   1.000                 2   46    1
                   0.007   1.000   4.000                 3   55    1
                   0.020   1.000   4.000                 4   64    4
  19 Si  3 Si Si       *       *       *  12.000    6
                   0.007   1.000   1.000                 1   47    1
                   0.007  -1.000   2.000                 2   48    1
                   0.007  -1.000   4.000                 3   52    1
                   0.007   1.000   4.000                 4   56    1
                   0.020  -1.000   1.000                 5   59    5
                   0.020   1.000   1.000                 6   63    5
-----------------------------------------------------------------------
RuNNer pair style setup completed.
-----------------------------------------------------------------------
Neighbor list info ...
  update every 1 steps, delay 0 steps, check yes
  max neighbors/atom: 2000, page size: 100000
  master list distance cutoff = 8.93766
  ghost atom cutoff = 8.93766
  1 neighbor lists, perpetual/occasional/extra = 1 0 0
  (1) pair runner, perpetual
      attributes: full, newton on
      pair build: full/nsq
      stencil: none
      bin: none
# RuNNer EW summary: 12 0 0.000000
Per MPI rank memory allocation (min/avg/max) = 3.848 | 3.848 | 3.848 Mbytes
Step Temp PotEng Press Pxx Pyy Pzz Pxy Pxz Pyz Lx Ly Lz Volume 
      12            0    -274.4621    10.067013    14.452768    7.8671885    7.8810819 0.0011843156 0.0010138939 0.0022185104    4.0401997    4.0402402    4.0402402    65.950364 
# RuNNer EW summary: 13 0 0.000000
[...]
  18 Al  3 Al Si       *       *       *  12.000    4
                   0.007  -1.000   1.000                 1   42    1
                   0.007   1.000   1.000                 2   48    1
                   0.007   1.000   4.000                 3   57    1
                   0.020   1.000   1.000                 4   62    4
  19 Al  3 Si Si       *       *       *  12.000    6
                   0.007  -1.000   1.000                 1   43    1
                   0.007   1.000   1.000                 2   49    1
                   0.007  -1.000   4.000                 3   52    1
                   0.007   1.000   4.000                 4   58    1
                   0.020  -1.000   1.000                 5   59    5
                   0.020   1.000   2.000                 6   64    5
-----------------------------------------------------------------------
short range atomic symmetry functions groups of element Si
-----------------------------------------------------------------------
   1 Si  2 Mg                  *       *   8.000    2
                           0.016   0.000                 1    1
                           0.082   0.000                 2    5
   2 Si  2 Al                  *       *   8.000    2
                           0.016   0.000                 1    2
                           0.082   0.000                 2    6
   3 Si  2 Si                  *       *   8.000    4
                           0.016   0.000                 1    3
                           0.036   0.000                 2    4
                           0.082   0.000                 3    7
                           0.124   0.000                 4    8
   4 Si  2 Mg                  *       *  16.000    3
                           0.016   0.000                 1    9
                           0.091   8.000                 2   12
                           0.112  13.007                 3   15
   5 Si  2 Al                  *       *  16.000    3
                           0.016   0.000                 1   10
                           0.091   8.000                 2   13
                           0.112  13.007                 3   16
   6 Si  2 Si                  *       *  16.000    3
                           0.021   0.000                 1   11
                           0.091   8.000                 2   14
                           0.112  13.007                 3   17
   7 Si  2 Mg                  *       *  20.000    5
                           0.003   0.000                 1   18
                           0.058  10.000                 2   21
                           0.071  16.259                 3   23
                           0.108  13.218                 4   26
                           0.117   7.071                 5   29
   8 Si  2 Al                  *       *  20.000    3
                           0.003   0.000                 1   19
                           0.071  16.259                 2   24
                           0.108  13.218                 3   27
   9 Si  2 Si                  *       *  20.000    5
                           0.003   0.000                 1   20
                           0.058  10.000                 2   22
                           0.071  16.259                 3   25
                           0.108  13.218                 4   28
                           0.117   7.071                 5   30
  10 Si  3 Mg Si       *       *       *   8.000    1
                   0.016   1.000   1.000                 1   31    1
  11 Si  3 Al Al       *       *       *   8.000    1
                   0.016   1.000   1.000                 1   32    1
  12 Si  3 Al Si       *       *       *   8.000    1
                   0.016   1.000   1.000                 1   33    1
  13 Si  3 Si Si       *       *       *   8.000    3
                   0.016   1.000   1.000                 1   34    1
                   0.016  -1.000   2.000                 2   35    1
                   0.016   1.000   8.000                 3   36    1
  14 Si  3 Mg Mg       *       *       *  12.000    6
                   0.007  -1.000   1.000                 1   37    1
                   0.007   1.000   1.000                 2   42    1
                   0.007  -1.000   4.000                 3   49    1
                   0.007   1.000   4.000                 4   53    1
                   0.020  -1.000   1.000                 5   57    5
                   0.020   1.000   1.000                 6   60    5
  15 Si  3 Mg Al       *       *       *  12.000    4
                   0.007  -1.000   1.000                 1   38    1
                   0.007   1.000   1.000                 2   43    1
                   0.007  -1.000   4.000                 3   50    1
                   0.020   1.000   1.000                 4   61    4
  16 Si  3 Mg Si       *       *       *  12.000    6
                   0.007  -1.000   1.000                 1   39    1
                   0.007   1.000   1.000                 2   44    1
                   0.007  -1.000   4.000                 3   51    1
                   0.007   1.000   4.000                 4   54    1
                   0.020  -1.000   1.000                 5   58    5
                   0.020   1.000   1.000                 6   62    5
  17 Si  3 Al Al       *       *       *  12.000    2
                   0.007  -1.000   1.000                 1   40    1
                   0.007   1.000   1.000                 2   45    1
  18 Si  3 Al Si       *       *       *  12.000    4
                   0.007  -1.000   1.000                 1   41    1
                   0.007   1.000   1.000                 2   46    1
                   0.007   1.000   4.000                 3   55    1
                   0.020   1.000   4.000                 4   64    4
  19 Si  3 Si Si       *       *       *  12.000    6
                   0.007   1.000   1.000                 1   47    1
                   0.007  -1.000   2.000                 2   48    1
                   0.007  -1.000   4.000                 3   52    1
                   0.007   1.000   4.000                 4   56    1
                   0.020  -1.000   1.000                 5   59    5
                   0.020   1.000   1.000                 6   63    5
-----------------------------------------------------------------------
RuNNer pair style setup completed.
-----------------------------------------------------------------------
Neighbor list info ...
  update every 1 steps, delay 0 steps, check yes
  max neighbors/atom: 2000, page size: 100000
  master list distance cutoff = 8.93766
  ghost atom cutoff = 8.93766
  1 neighbor lists, perpetual/occasional/extra = 1 0 0
  (1) pair runner, perpetual
      attributes: full, newton on
      pair build: full/nsq
      stencil: none
      bin: none
# RuNNer EW summary: 12 0 0.000000
Per MPI rank memory allocation (min/avg/max) = 3.848 | 3.848 | 3.848 Mbytes
Step Temp PotEng Press Pxx Pyy Pzz Pxy Pxz Pyz Lx Ly Lz Volume 
      12            0    -274.4621    2.2163494    2.2425099     2.196413    2.2101254   -3.3346361 0.0010141233 0.0022185587    4.0402402    4.0402402    4.0402402    65.951024 
# RuNNer EW summary: 13 0 0.000000
# RuNNer EW summary: 13 0 0.000000
      13            0   -274.46211 4.6854172e-05 6.4229248e-05 0.00011957897 -4.3245705e-05   -3.3364579 -0.00050105573 -0.0011550582    4.0402402    4.0402402    4.0402402    65.951024 
# RuNNer EW summary: 14 0 0.000000
# RuNNer EW summary: 14 0 0.000000
      14            0   -274.46211 8.588327e-05 0.00012378452 0.00015736117 -2.3495884e-05   -3.3358422 -2.5873734e-05 -2.5855517e-05    4.0402402    4.0402402    4.0402402    65.951024 
# RuNNer EW summary: 15 0 0.000000
# RuNNer EW summary: 15 0 0.000000
      15            0   -274.46211 6.5245241e-05 0.00010286607 0.00013692933 -4.405968e-05   -3.3358422 -2.5878982e-05 -2.5864963e-05    4.0402402    4.0402402    4.0402402    65.951024 
# RuNNer EW summary: 16 0 0.000000
# RuNNer EW summary: 16 0 0.000000
# RuNNer EW summary: 16 0 0.000000
      16            0   -274.46211  6.52477e-05 0.00010286894 0.00013693218 -4.4058021e-05   -3.3358422 -2.589645e-05 -2.589703e-05    4.0402402    4.0402402    4.0402402    65.951024 
Loop time of 0.0263829 on 1 procs for 4 steps with 4 atoms

92.0% CPU use with 1 MPI tasks x 1 OpenMP threads

Minimization stats:
  Stopping criterion = force tolerance
  Energy initial, next-to-last, final = 
        -274.462100465     -274.462105057     -274.462105057
  Force two-norm initial, final = 0.00942559 3.05561e-13
  Force max component initial, final = 0.00277349 1.88291e-13
  Final line search alpha, max atom move = 1 1.88291e-13
  Iterations, force evaluations = 4 8

MPI task timing breakdown:
Section |  min time  |  avg time  |  max time  |%varavg| %total
---------------------------------------------------------------
Pair    | 0.026246   | 0.026246   | 0.026246   |   0.0 | 99.48
Neigh   | 0          | 0          | 0          |   0.0 |  0.00
Comm    | 4.7445e-05 | 4.7445e-05 | 4.7445e-05 |   0.0 |  0.18
Output  | 4.5061e-05 | 4.5061e-05 | 4.5061e-05 |   0.0 |  0.17
Modify  | 0          | 0          | 0          |   0.0 |  0.00
Other   |            | 4.458e-05  |            |       |  0.17

Nlocal:    4 ave 4 max 4 min
Histogram: 1 0 0 0 0 0 0 0 0 0
Nghost:    662 ave 662 max 662 min
Histogram: 1 0 0 0 0 0 0 0 0 0
Neighs:    0 ave 0 max 0 min
Histogram: 1 0 0 0 0 0 0 0 0 0
FullNghs:  704 ave 704 max 704 min
Histogram: 1 0 0 0 0 0 0 0 0 0

Total # of neighbors = 704
Ave neighs/atom = 176
Neighbor list builds = 0
Dangerous builds = 0

# Obtain new stress tensor

variable tmp equal pe
variable e1 equal ${tmp}
variable e1 equal -274.462105057127
variable tmp equal press
variable p1 equal ${tmp}
variable p1 equal 6.52476998882861e-05
variable tmp equal pxx
variable pxx1 equal ${tmp}
variable pxx1 equal 0.000102868937203181
variable tmp equal pyy
variable pyy1 equal ${tmp}
variable pyy1 equal 0.000136932183405655
variable tmp equal pzz
variable pzz1 equal ${tmp}
variable pzz1 equal -4.4058020943978e-05
variable tmp equal pxy
variable pxy1 equal ${tmp}
variable pxy1 equal -3.3358422272456
variable tmp equal pxz
variable pxz1 equal ${tmp}
variable pxz1 equal -2.58964495719635e-05
variable tmp equal pyz
variable pyz1 equal ${tmp}
variable pyz1 equal -2.58970295425116e-05

# Compute elastic constant from pressure tensor

variable C1pos equal ${d1}
variable C1pos equal -0.00102894615666891
variable C2pos equal ${d2}
variable C2pos equal -0.00136921423099528
variable C3pos equal ${d3}
variable C3pos equal 0.000440701289515843
variable C4pos equal ${d4}
variable C4pos equal 1.27421385719972e-08
variable C5pos equal ${d5}
variable C5pos equal 5.36361930798059e-09
variable C6pos equal ${d6}
variable C6pos equal 33.3581633114757

# Combine positive and negative

variable C1${dir} equal 0.5*(${C1neg}+${C1pos})
variable C16 equal 0.5*(${C1neg}+${C1pos})
variable C16 equal 0.5*(0.00102840273539816+${C1pos})
variable C16 equal 0.5*(0.00102840273539816+-0.00102894615666891)
variable C2${dir} equal 0.5*(${C2neg}+${C2pos})
variable C26 equal 0.5*(${C2neg}+${C2pos})
variable C26 equal 0.5*(0.00136866031718702+${C2pos})
variable C26 equal 0.5*(0.00136866031718702+-0.00136921423099528)
variable C3${dir} equal 0.5*(${C3neg}+${C3pos})
variable C36 equal 0.5*(${C3neg}+${C3pos})
variable C36 equal 0.5*(-0.000440970332991231+${C3pos})
variable C36 equal 0.5*(-0.000440970332991231+0.000440701289515843)
variable C4${dir} equal 0.5*(${C4neg}+${C4pos})
variable C46 equal 0.5*(${C4neg}+${C4pos})
variable C46 equal 0.5*(-2.5937246679925e-09+${C4pos})
variable C46 equal 0.5*(-2.5937246679925e-09+1.27421385719972e-08)
variable C5${dir} equal 0.5*(${C5neg}+${C5pos})
variable C56 equal 0.5*(${C5neg}+${C5pos})
variable C56 equal 0.5*(8.08891741701243e-09+${C5pos})
variable C56 equal 0.5*(8.08891741701243e-09+5.36361930798059e-09)
variable C6${dir} equal 0.5*(${C6neg}+${C6pos})
variable C66 equal 0.5*(${C6neg}+${C6pos})
variable C66 equal 0.5*(33.3581633098505+${C6pos})
variable C66 equal 0.5*(33.3581633098505+33.3581633114757)

# Delete dir to make sure it is not reused

variable dir delete

# Output final values

variable C11all equal ${C11}
variable C11all equal 122.088994720015
variable C22all equal ${C22}
variable C22all equal 122.088994724052
variable C33all equal ${C33}
variable C33all equal 122.088994735089

variable C12all equal 0.5*(${C12}+${C21})
variable C12all equal 0.5*(56.708059899486+${C21})
variable C12all equal 0.5*(56.708059899486+56.7080598972708)
variable C13all equal 0.5*(${C13}+${C31})
variable C13all equal 0.5*(56.7080599039761+${C31})
variable C13all equal 0.5*(56.7080599039761+56.7080598946497)
variable C23all equal 0.5*(${C23}+${C32})
variable C23all equal 0.5*(56.7080599007869+${C32})
variable C23all equal 0.5*(56.7080599007869+56.7080599048011)

variable C44all equal ${C44}
variable C44all equal 33.3581633188988
variable C55all equal ${C55}
variable C55all equal 33.3581633082838
variable C66all equal ${C66}
variable C66all equal 33.3581633106631

variable C14all equal 0.5*(${C14}+${C41})
variable C14all equal 0.5*(-1.49806638567019e-07+${C41})
variable C14all equal 0.5*(-1.49806638567019e-07+-1.46797036079493e-07)
variable C15all equal 0.5*(${C15}+${C51})
variable C15all equal 0.5*(-2.78750725e-07+${C51})
variable C15all equal 0.5*(-2.78750725e-07+-2.88178355545009e-07)
variable C16all equal 0.5*(${C16}+${C61})
variable C16all equal 0.5*(-2.7171063537502e-07+${C61})
variable C16all equal 0.5*(-2.7171063537502e-07+-2.81636446547986e-07)

variable C24all equal 0.5*(${C24}+${C42})
variable C24all equal 0.5*(-2.8576582671502e-07+${C42})
variable C24all equal 0.5*(-2.8576582671502e-07+-2.79246987625988e-07)
variable C25all equal 0.5*(${C25}+${C52})
variable C25all equal 0.5*(-1.40224350258513e-07+${C52})
variable C25all equal 0.5*(-1.40224350258513e-07+-1.46676069417003e-07)
variable C26all equal 0.5*(${C26}+${C62})
variable C26all equal 0.5*(-2.76956904130053e-07+${C62})
variable C26all equal 0.5*(-2.76956904130053e-07+-2.80612423988987e-07)

variable C34all equal 0.5*(${C34}+${C43})
variable C34all equal 0.5*(-2.82252910894913e-07+${C43})
variable C34all equal 0.5*(-2.82252910894913e-07+-2.70031816316006e-07)
variable C35all equal 0.5*(${C35}+${C53})
variable C35all equal 0.5*(-2.8501138964502e-07+${C53})
variable C35all equal 0.5*(-2.8501138964502e-07+-2.71398768643992e-07)
variable C36all equal 0.5*(${C36}+${C63})
variable C36all equal 0.5*(-1.34521737694005e-07+${C63})
variable C36all equal 0.5*(-1.34521737694005e-07+-1.45786119395504e-07)

variable C45all equal 0.5*(${C45}+${C54})
variable C45all equal 0.5*(-5.38573514873551e-11+${C54})
variable C45all equal 0.5*(-5.38573514873551e-11+9.87058324699841e-09)
variable C46all equal 0.5*(${C46}+${C64})
variable C46all equal 0.5*(5.07420695200235e-09+${C64})
variable C46all equal 0.5*(5.07420695200235e-09+6.935728641513e-09)
variable C56all equal 0.5*(${C56}+${C65})
variable C56all equal 0.5*(6.72626836249651e-09+${C65})
variable C56all equal 0.5*(6.72626836249651e-09+1.00076688495048e-08)

# Average moduli for cubic crystals

variable C11cubic equal (${C11all}+${C22all}+${C33all})/3.0
variable C11cubic equal (122.088994720015+${C22all}+${C33all})/3.0
variable C11cubic equal (122.088994720015+122.088994724052+${C33all})/3.0
variable C11cubic equal (122.088994720015+122.088994724052+122.088994735089)/3.0
variable C12cubic equal (${C12all}+${C13all}+${C23all})/3.0
variable C12cubic equal (56.7080598983784+${C13all}+${C23all})/3.0
variable C12cubic equal (56.7080598983784+56.7080598993129+${C23all})/3.0
variable C12cubic equal (56.7080598983784+56.7080598993129+56.708059902794)/3.0
variable C44cubic equal (${C44all}+${C55all}+${C66all})/3.0
variable C44cubic equal (33.3581633188988+${C55all}+${C66all})/3.0
variable C44cubic equal (33.3581633188988+33.3581633082838+${C66all})/3.0
variable C44cubic equal (33.3581633188988+33.3581633082838+33.3581633106631)/3.0

variable bulkmodulus equal (${C11cubic}+2*${C12cubic})/3.0
variable bulkmodulus equal (122.088994726385+2*${C12cubic})/3.0
variable bulkmodulus equal (122.088994726385+2*56.7080599001618)/3.0
variable shearmodulus1 equal ${C44cubic}
variable shearmodulus1 equal 33.3581633126152
variable shearmodulus2 equal (${C11cubic}-${C12cubic})/2.0
variable shearmodulus2 equal (122.088994726385-${C12cubic})/2.0
variable shearmodulus2 equal (122.088994726385-56.7080599001618)/2.0
variable poissonratio equal 1.0/(1.0+${C11cubic}/${C12cubic})
variable poissonratio equal 1.0/(1.0+122.088994726385/${C12cubic})
variable poissonratio equal 1.0/(1.0+122.088994726385/56.7080599001618)

# For Stillinger-Weber silicon, the analytical results
# are known to be (E. R. Cowley, 1988):
#               C11 = 151.4 GPa
#               C12 = 76.4 GPa
#               C44 = 56.4 GPa

print "========================================="
=========================================
print "Components of the Elastic Constant Tensor"
Components of the Elastic Constant Tensor
print "========================================="
=========================================

print "Elastic Constant C11all = ${C11all} ${cunits}"
Elastic Constant C11all = 122.088994720015 GPa
print "Elastic Constant C22all = ${C22all} ${cunits}"
Elastic Constant C22all = 122.088994724052 GPa
print "Elastic Constant C33all = ${C33all} ${cunits}"
Elastic Constant C33all = 122.088994735089 GPa

print "Elastic Constant C12all = ${C12all} ${cunits}"
Elastic Constant C12all = 56.7080598983784 GPa
print "Elastic Constant C13all = ${C13all} ${cunits}"
Elastic Constant C13all = 56.7080598993129 GPa
print "Elastic Constant C23all = ${C23all} ${cunits}"
Elastic Constant C23all = 56.708059902794 GPa

print "Elastic Constant C44all = ${C44all} ${cunits}"
Elastic Constant C44all = 33.3581633188988 GPa
print "Elastic Constant C55all = ${C55all} ${cunits}"
Elastic Constant C55all = 33.3581633082838 GPa
print "Elastic Constant C66all = ${C66all} ${cunits}"
Elastic Constant C66all = 33.3581633106631 GPa

print "Elastic Constant C14all = ${C14all} ${cunits}"
Elastic Constant C14all = -1.48301837323256e-07 GPa
print "Elastic Constant C15all = ${C15all} ${cunits}"
Elastic Constant C15all = -2.83464540272505e-07 GPa
print "Elastic Constant C16all = ${C16all} ${cunits}"
Elastic Constant C16all = -2.76673540961503e-07 GPa

print "Elastic Constant C24all = ${C24all} ${cunits}"
Elastic Constant C24all = -2.82506407170504e-07 GPa
print "Elastic Constant C25all = ${C25all} ${cunits}"
Elastic Constant C25all = -1.43450209837758e-07 GPa
print "Elastic Constant C26all = ${C26all} ${cunits}"
Elastic Constant C26all = -2.7878466405952e-07 GPa

print "Elastic Constant C34all = ${C34all} ${cunits}"
Elastic Constant C34all = -2.7614236360546e-07 GPa
print "Elastic Constant C35all = ${C35all} ${cunits}"
Elastic Constant C35all = -2.78205079144506e-07 GPa
print "Elastic Constant C36all = ${C36all} ${cunits}"
Elastic Constant C36all = -1.40153928544754e-07 GPa

print "Elastic Constant C45all = ${C45all} ${cunits}"
Elastic Constant C45all = 4.90836294775553e-09 GPa
print "Elastic Constant C46all = ${C46all} ${cunits}"
Elastic Constant C46all = 6.00496779675767e-09 GPa
print "Elastic Constant C56all = ${C56all} ${cunits}"
Elastic Constant C56all = 8.36696860600066e-09 GPa

print "========================================="
=========================================
print "Average properties for a cubic crystal"
Average properties for a cubic crystal
print "========================================="
=========================================

print "Bulk Modulus = ${bulkmodulus} ${cunits}"
Bulk Modulus = 78.5017048422362 GPa
print "Shear Modulus 1 = ${shearmodulus1} ${cunits}"
Shear Modulus 1 = 33.3581633126152 GPa
print "Shear Modulus 2 = ${shearmodulus2} ${cunits}"
Shear Modulus 2 = 32.6904674131116 GPa
print "Poisson Ratio = ${poissonratio}"
Poisson Ratio = 0.317164396352098
Total wall time: 0:00:00
