LAMMPS positionsfile from: None

4 atoms
1 atom types

0.0 4.041336954217004 xlo xhi
0.0 4.041336954217006 ylo yhi
0.0 4.041336954217007 zlo zhi
2.2321810353191937e-17 5.12931030423654e-16 2.3120237029284805e-16 xy xz yz

Masses

1 26.9815385

Atoms

    1     1 0.0  0.0  0.0
    2     1 2.6762642038842296e-16  2.0206684771085026  2.0206684771085035
    3     1 2.0206684771085017  1.2676209032301996e-16  2.020668477108503
    4     1 2.0206684771085017  2.0206684771085026  3.72066700358251e-16

