
     Program PWSCF v.6.3 starts on 27Feb2020 at  2:19:20 

     This program is part of the open-source Quantum ESPRESSO suite
     for quantum simulation of materials; please cite
         "P. Giannozzi et al., J. Phys.:Condens. Matter 21 395502 (2009);
         "P. Giannozzi et al., J. Phys.:Condens. Matter 29 465901 (2017);
          URL http://www.quantum-espresso.org", 
     in publications or presentations arising from this work. More details at
     http://www.quantum-espresso.org/quote

 *** WARNING: using old-style file format, will disappear from next version ***

     Parallel version (MPI & OpenMP), running on     288 processor cores
     Number of MPI processes:               288
     Threads/MPI process:                     1

     MPI processes distributed on     8 nodes
     K-points division:     npool     =      36
     R & G space division:  proc/nbgrp/npool/nimage =       8
     Reading input from aiida.in
Warning: card &IONS ignored
Warning: card   !PRESS_CONV_THR = 0.05                 ! JUST FOR VOLUME RELAXATIONS ignored
Warning: card / ignored

     Current dimensions of program PWSCF are:
     Max number of different atomic species (ntypx) = 10
     Max number of k-points (npk) =  40000
     Max angular momentum in pseudopotentials (lmaxx) =  3
               file Al.pbe-n-kjpaw_psl.1.0.0.UPF: wavefunction(s)  3S 3P renormalized
               file Mg.pbe-n-kjpaw_psl.0.3.0.UPF: wavefunction(s)  3S renormalized

     Subspace diagonalization in iterative solution of the eigenvalue problem:
     one sub-group per band group will be used
     scalapack distributed-memory algorithm (size of sub-group:  2*  2 procs)

 
     Parallelization info
     --------------------
     sticks:   dense  smooth     PW     G-vecs:    dense   smooth      PW
     Min       10376    4148   1130               515258   130386   18571
     Max       10377    4149   1131               515259   130387   18572
     Sum       83011   33191   9045              4122069  1043091  148571
 


     bravais-lattice index     =            0
     lattice parameter (alat)  =      27.6424  a.u.
     unit-cell volume          =   30511.5100 (a.u.)^3
     number of atoms/cell      =          264
     number of atomic types    =            3
     number of electrons       =       792.00
     number of Kohn-Sham states=          475
     kinetic-energy cutoff     =      40.0000  Ry
     charge density cutoff     =     400.0000  Ry
     convergence threshold     =      1.0E-12
     mixing beta               =       0.4000
     number of iterations used =            8  local-TF  mixing
     Exchange-correlation      = PBE ( 1  4  3  4 0 0)

     celldm(1)=  27.642373  celldm(2)=   0.000000  celldm(3)=   0.000000
     celldm(4)=   0.000000  celldm(5)=   0.000000  celldm(6)=   0.000000

     crystal axes: (cart. coord. in units of alat)
               a(1) = (   0.554700   0.000000   0.832050 )  
               a(2) = (   0.000000   3.414431   0.000000 )  
               a(3) = (  -0.416025   0.000000   0.138675 )  

     reciprocal axes: (cart. coord. in units 2 pi/alat)
               b(1) = (  0.327777  0.000000  0.983332 )  
               b(2) = (  0.000000  0.292875  0.000000 )  
               b(3) = ( -1.966664  0.000000  1.311110 )  


     PseudoPot. # 1 for Al read from file:
     /users/aglensk/Dropbox/Albert/scripts/dotfiles/scripts/potentials/quantum_espresso/pseudo_SSSPefV1.1_alalloy/Al.pbe-n-kjpaw_psl.1.0.0.UPF
     MD5 check sum: cfc449ca30b5f3223ec38ddd88ac046d
     Pseudo is Projector augmented-wave + core cor, Zval =  3.0
     Generated using "atomic" code by A. Dal Corso v.5.1
     Shape of augmentation charge: PSQ
     Using radial grid of 1135 points,  6 beta functions with: 
                l(1) =   0
                l(2) =   0
                l(3) =   1
                l(4) =   1
                l(5) =   2
                l(6) =   2
     Q(r) pseudized with 0 coefficients 


     PseudoPot. # 2 for Mg read from file:
     /users/aglensk/Dropbox/Albert/scripts/dotfiles/scripts/potentials/quantum_espresso/pseudo_SSSPefV1.1_alalloy/Mg.pbe-n-kjpaw_psl.0.3.0.UPF
     MD5 check sum: 24ecedc7f3e3cbe212e682f4413594e4
     Pseudo is Projector augmented-wave + core cor, Zval =  2.0
     Generated using "atomic" code by A. Dal Corso v.5.0.99 svn rev. 10869
     Shape of augmentation charge: PSQ
     Using radial grid of 1129 points,  4 beta functions with: 
                l(1) =   0
                l(2) =   0
                l(3) =   1
                l(4) =   1
     Q(r) pseudized with 0 coefficients 


     PseudoPot. # 3 for Si read from file:
     /users/aglensk/Dropbox/Albert/scripts/dotfiles/scripts/potentials/quantum_espresso/pseudo_SSSPefV1.1_alalloy/Si.pbe-n-rrkjus_psl.1.0.0.UPF
     MD5 check sum: 0b0bb1205258b0d07b9f9672cf965d36
     Pseudo is Ultrasoft + core correction, Zval =  4.0
     Generated using "atomic" code by A. Dal Corso v.5.1
     Using radial grid of 1141 points,  6 beta functions with: 
                l(1) =   0
                l(2) =   0
                l(3) =   1
                l(4) =   1
                l(5) =   2
                l(6) =   2
     Q(r) pseudized with 0 coefficients 


     atomic species   valence    mass     pseudopotential
        Al             3.00    26.98154     Al( 1.00)
        Mg             2.00    24.30500     Mg( 1.00)
        Si             4.00    28.08500     Si( 1.00)

     No symmetry found


                                    s                        frac. trans.

      isym =  1     identity                                     

 cryst.   s( 1) = (     1          0          0      )
                  (     0          1          0      )
                  (     0          0          1      )

 cart.    s( 1) = (  1.0000000  0.0000000 -0.0000000 )
                  (  0.0000000  1.0000000  0.0000000 )
                  (  0.0000000  0.0000000  1.0000000 )


   Cartesian axes

     site n.     atom                  positions (alat units)
         1           Al  tau(   1) = (  -0.4079736   0.0209783   0.1382524  )
         2           Mg  tau(   2) = (  -0.1063653   0.1350953   0.1138446  )
         3           Mg  tau(   3) = (  -0.2871125   0.1376753   0.2533625  )
         4           Mg  tau(   4) = (   0.1588524   3.4134901   0.3013048  )
         5           Mg  tau(   5) = (  -0.0238295   3.4135985   0.4434291  )
         6           Si  tau(   6) = (  -0.2388409   3.4016520   0.1400708  )
         7           Si  tau(   7) = (   0.0153507   3.4075982   0.1772889  )
         8           Al  tau(   8) = (  -0.1322123   3.4018146   0.2761072  )
         9           Al  tau(   9) = (   0.0036852   0.1376089   0.2814628  )
        10           Si  tau(  10) = (  -0.1434927   0.1413907   0.3736877  )
        11           Si  tau(  11) = (   0.1100275   0.1437145   0.4131487  )
        12           Al  tau(  12) = (  -0.1339292   0.1455416   0.5544545  )
        13           Mg  tau(  13) = (   0.1708021   0.0001258   0.5257858  )
        14           Mg  tau(  14) = (  -0.0118101   3.4115196   0.6686327  )
        15           Mg  tau(  15) = (   0.4372661   0.1344658   0.7170495  )
        16           Mg  tau(  16) = (   0.2572000   0.1352020   0.8539526  )
        17           Si  tau(  17) = (   0.0379730   0.1424401   0.5572750  )
        18           Si  tau(  18) = (   0.2926001   0.1404835   0.5965918  )
        19           Al  tau(  19) = (   0.1449880   0.1357457   0.6885434  )
        20           Al  tau(  20) = (   0.2803310   3.4013704   0.6936888  )
        21           Si  tau(  21) = (   0.1337030   3.4040703   0.7927187  )
        22           Si  tau(  22) = (   0.3939756   3.3925742   0.8266508  )
        23           Al  tau(  23) = (  -0.4101910   0.2742672   0.1379369  )
        24           Mg  tau(  24) = (  -0.0988513   0.4277345   0.1058599  )
        25           Mg  tau(  25) = (  -0.2897802   0.4291793   0.2509754  )
        26           Mg  tau(  26) = (   0.1618971   0.2866459   0.3016729  )
        27           Mg  tau(  27) = (  -0.0281794   0.2871699   0.4459100  )
        28           Si  tau(  28) = (  -0.2389869   0.2830811   0.1404195  )
        29           Si  tau(  29) = (   0.0166558   0.2839689   0.1803984  )
        30           Al  tau(  30) = (  -0.1315288   0.2854552   0.2709211  )
        31           Al  tau(  31) = (   0.0036996   0.4301464   0.2822538  )
        32           Si  tau(  32) = (  -0.1447071   0.4312788   0.3727152  )
        33           Si  tau(  33) = (   0.1106442   0.4316390   0.4131464  )
        34           Al  tau(  34) = (  -0.1334866   0.4318410   0.5544843  )
        35           Mg  tau(  35) = (   0.1768978   0.2869872   0.5245339  )
        36           Mg  tau(  36) = (  -0.0128225   0.2857483   0.6685447  )
        37           Mg  tau(  37) = (   0.4392266   0.4281284   0.7188391  )
        38           Mg  tau(  38) = (   0.2481801   0.4279297   0.8638690  )
        39           Si  tau(  39) = (   0.0384433   0.4310439   0.5571521  )
        40           Si  tau(  40) = (   0.2938956   0.4306787   0.5974162  )
        41           Al  tau(  41) = (   0.1455447   0.4293428   0.6879497  )
        42           Al  tau(  42) = (   0.2809325   0.2846386   0.6989450  )
        43           Si  tau(  43) = (   0.1326862   0.2825117   0.7893482  )
        44           Si  tau(  44) = (   0.3891513   0.2811995   0.8289174  )
        45           Al  tau(  45) = (  -0.4107255   0.5742516   0.1382714  )
        46           Mg  tau(  46) = (  -0.0997415   0.7199322   0.1071151  )
        47           Mg  tau(  47) = (  -0.2899024   0.7204418   0.2514116  )
        48           Mg  tau(  48) = (   0.1617264   0.5764364   0.3023528  )
        49           Mg  tau(  49) = (  -0.0283313   0.5763414   0.4464774  )
        50           Si  tau(  50) = (  -0.2389331   0.5748293   0.1406369  )
        51           Si  tau(  51) = (   0.0167729   0.5753547   0.1807604  )
        52           Al  tau(  52) = (  -0.1316149   0.5757731   0.2706434  )
        53           Al  tau(  53) = (   0.0035290   0.7209016   0.2829349  )
        54           Si  tau(  54) = (  -0.1448598   0.7211936   0.3730006  )
        55           Si  tau(  55) = (   0.1108296   0.7217877   0.4132392  )
        56           Al  tau(  56) = (  -0.1334140   0.7213086   0.5544175  )
        57           Mg  tau(  57) = (   0.1774481   0.5763568   0.5237188  )
        58           Mg  tau(  58) = (  -0.0125855   0.5759383   0.6677863  )
        59           Mg  tau(  59) = (   0.4390931   0.7198487   0.7186581  )
        60           Mg  tau(  60) = (   0.2488773   0.7200343   0.8629006  )
        61           Si  tau(  61) = (   0.0383703   0.7212770   0.5568675  )
        62           Si  tau(  62) = (   0.2940197   0.7208541   0.5971343  )
        63           Al  tau(  63) = (   0.1456355   0.7205679   0.6871989  )
        64           Al  tau(  64) = (   0.2807529   0.5753242   0.6993624  )
        65           Si  tau(  65) = (   0.1323872   0.5748418   0.7892319  )
        66           Si  tau(  66) = (   0.3881849   0.5738468   0.8292669  )
        67           Al  tau(  67) = (  -0.4107945   0.8653961   0.1383742  )
        68           Mg  tau(  68) = (  -0.0999179   1.0104656   0.1076520  )
        69           Mg  tau(  69) = (  -0.2900103   1.0108978   0.2517863  )
        70           Mg  tau(  70) = (   0.1617382   0.8669940   0.3026534  )
        71           Mg  tau(  71) = (  -0.0284828   0.8668647   0.4468978  )
        72           Si  tau(  72) = (  -0.2390142   0.8656528   0.1408276  )
        73           Si  tau(  73) = (   0.0166407   0.8660356   0.1811373  )
        74           Al  tau(  74) = (  -0.1317637   0.8663361   0.2711709  )
        75           Al  tau(  75) = (   0.0033012   1.0115520   0.2834528  )
        76           Si  tau(  76) = (  -0.1450516   1.0120312   0.3732399  )
        77           Si  tau(  77) = (   0.1107623   1.0129725   0.4132718  )
        78           Al  tau(  78) = (  -0.1334203   1.0126890   0.5543057  )
        79           Mg  tau(  79) = (   0.1776229   0.8669461   0.5231270  )
        80           Mg  tau(  80) = (  -0.0125812   0.8664943   0.6674017  )
        81           Mg  tau(  81) = (   0.4390625   1.0104096   0.7183187  )
        82           Mg  tau(  82) = (   0.2489237   1.0104959   0.8624929  )
        83           Si  tau(  83) = (   0.0384045   1.0122021   0.5566318  )
        84           Si  tau(  84) = (   0.2941326   1.0115984   0.5967516  )
        85           Al  tau(  85) = (   0.1457542   1.0111611   0.6865476  )
        86           Al  tau(  86) = (   0.2808737   0.8660408   0.6989301  )
        87           Si  tau(  87) = (   0.1324612   0.8657092   0.7889687  )
        88           Si  tau(  88) = (   0.3881501   0.8650671   0.8292446  )
        89           Al  tau(  89) = (  -0.4109207   1.1548801   0.1384098  )
        90           Mg  tau(  90) = (  -0.1005562   1.2995546   0.1083580  )
        91           Mg  tau(  91) = (  -0.2903338   1.3007967   0.2524572  )
        92           Mg  tau(  92) = (   0.1616631   1.1586403   0.3027218  )
        93           Mg  tau(  93) = (  -0.0297396   1.1592950   0.4482970  )
        94           Si  tau(  94) = (  -0.2389669   1.1556359   0.1410985  )
        95           Si  tau(  95) = (   0.0163733   1.1559732   0.1813293  )
        96           Al  tau(  96) = (  -0.1319326   1.1574340   0.2719650  )
        97           Al  tau(  97) = (   0.0033408   1.3018603   0.2828904  )
        98           Si  tau(  98) = (  -0.1448863   1.3042650   0.3733889  )
        99           Si  tau(  99) = (   0.1116547   1.3050851   0.4129186  )
       100           Al  tau( 100) = (  -0.1331506   1.3168864   0.5539444  )
       101           Mg  tau( 101) = (   0.1788536   1.1594425   0.5214121  )
       102           Mg  tau( 102) = (  -0.0124511   1.1578099   0.6670617  )
       103           Mg  tau( 103) = (   0.4390667   1.3000033   0.7176059  )
       104           Mg  tau( 104) = (   0.2490072   1.2993928   0.8619100  )
       105           Si  tau( 105) = (   0.0379053   1.3037012   0.5564852  )
       106           Si  tau( 106) = (   0.2938236   1.3030268   0.5962784  )
       107           Al  tau( 107) = (   0.1456555   1.3011975   0.6869067  )
       108           Al  tau( 108) = (   0.2809652   1.1567851   0.6981556  )
       109           Si  tau( 109) = (   0.1326086   1.1554864   0.7887310  )
       110           Si  tau( 110) = (   0.3878811   1.1550603   0.8290946  )
       111           Al  tau( 111) = (  -0.4114623   1.4412457   0.1383344  )
       112           Mg  tau( 112) = (  -0.1068948   1.5863498   0.1099300  )
       113           Mg  tau( 113) = (  -0.2892781   1.5890468   0.2525917  )
       114           Mg  tau( 114) = (   0.1589860   1.4516139   0.3001881  )
       115           Mg  tau( 115) = (  -0.0193894   1.4515139   0.4365768  )
       116           Si  tau( 116) = (  -0.2395701   1.4439026   0.1410956  )
       117           Si  tau( 117) = (   0.0147130   1.4459101   0.1803082  )
       118           Al  tau( 118) = (  -0.1327200   1.4507599   0.2723929  )
       119           Al  tau( 119) = (   0.0028080   1.5994021   0.2776960  )
       120           Si  tau( 120) = (  -0.1438923   1.5965766   0.3771844  )
       121           Si  tau( 121) = (   0.1165327   1.6075274   0.4111433  )
       122           Al  tau( 122) = (  -0.1317269   1.5613261   0.5542158  )
       123           Mg  tau( 123) = (   0.1691842   1.4515088   0.5314913  )
       124           Mg  tau( 124) = (  -0.0096575   1.4490798   0.6701016  )
       125           Mg  tau( 125) = (   0.4357804   1.5874259   0.7171049  )
       126           Mg  tau( 126) = (   0.2535591   1.5872203   0.8590851  )
       127           Si  tau( 127) = (   0.0365976   1.6002899   0.5560691  )
       128           Si  tau( 128) = (   0.2920051   1.5936190   0.5926764  )
       129           Al  tau( 129) = (   0.1445221   1.5990216   0.6919218  )
       130           Al  tau( 130) = (   0.2808313   1.4491887   0.6974534  )
       131           Si  tau( 131) = (   0.1338106   1.4452017   0.7898352  )
       132           Si  tau( 132) = (   0.3872178   1.4427735   0.8290443  )
       133           Al  tau( 133) = (  -0.2768916   2.0200206   0.1380334  )
       134           Al  tau( 134) = (   0.1387699   1.8827294   0.9694882  )
       135           Al  tau( 135) = (  -0.2767097   1.8811072   0.2769988  )
       136           Al  tau( 136) = (   0.0006718   2.0186597   0.1380771  )
       137           Al  tau( 137) = (   0.1379905   2.0173049   0.2769758  )
       138           Al  tau( 138) = (   0.0001220   1.8774726   0.2772482  )
       139           Al  tau( 139) = (   0.1356900   1.8780316   0.4138497  )
       140           Al  tau( 140) = (   0.1388189   2.0157041   0.5532309  )
       141           Al  tau( 141) = (   0.1383576   1.8784881   0.6925220  )
       142           Al  tau( 142) = (   0.2772364   1.8831216   0.8305723  )
       143           Al  tau( 143) = (   0.1380402   2.0188244   0.8308464  )
       144           Al  tau( 144) = (   0.4155290   2.0199768   0.8303756  )
       145           Al  tau( 145) = (  -0.1380425   1.8835024   0.1375204  )
       146           Al  tau( 146) = (  -0.1378712   2.0182100   0.2767522  )
       147           Al  tau( 147) = (  -0.0011099   2.0161314   0.4158674  )
       148           Al  tau( 148) = (  -0.1406006   1.8784064   0.4135250  )
       149           Al  tau( 149) = (   0.0006513   1.8768912   0.5552963  )
       150           Al  tau( 150) = (   0.2767544   2.0149956   0.4152220  )
       151           Al  tau( 151) = (   0.0002248   2.0170409   0.6918397  )
       152           Al  tau( 152) = (   0.2794171   1.8781412   0.5556303  )
       153           Al  tau( 153) = (   0.2766436   2.0180159   0.6919112  )
       154           Al  tau( 154) = (   0.4159061   1.8799800   0.6913893  )
       155           Al  tau( 155) = (  -0.2775368   2.2936628   0.1377977  )
       156           Al  tau( 156) = (   0.1384967   2.1563200   0.9698144  )
       157           Al  tau( 157) = (  -0.2773016   2.1560804   0.2769530  )
       158           Al  tau( 158) = (  -0.0000369   2.2936344   0.1379931  )
       159           Al  tau( 159) = (   0.1385359   2.2932517   0.2768385  )
       160           Al  tau( 160) = (  -0.0002012   2.1555961   0.2770458  )
       161           Al  tau( 161) = (   0.1382673   2.1545819   0.4154885  )
       162           Al  tau( 162) = (   0.1383275   2.2929097   0.5536087  )
       163           Al  tau( 163) = (   0.1384150   2.1555080   0.6918358  )
       164           Al  tau( 164) = (   0.2769546   2.1563769   0.8307803  )
       165           Al  tau( 165) = (   0.1382226   2.2936167   0.8308769  )
       166           Al  tau( 166) = (   0.4157453   2.2936960   0.8310216  )
       167           Al  tau( 167) = (  -0.1385978   2.1563900   0.1379032  )
       168           Al  tau( 168) = (  -0.1387790   2.2934837   0.2767510  )
       169           Al  tau( 169) = (  -0.0003104   2.2929181   0.4153357  )
       170           Al  tau( 170) = (  -0.1392147   2.1549890   0.4157529  )
       171           Al  tau( 171) = (  -0.0003378   2.1544693   0.5535927  )
       172           Al  tau( 172) = (  -0.1390051   2.2928933   0.5538224  )
       173           Al  tau( 173) = (  -0.0004506   2.2932149   0.6920527  )
       174           Al  tau( 174) = (   0.2771531   2.1548871   0.5532302  )
       175           Al  tau( 175) = (   0.2769103   2.2934823   0.6921099  )
       176           Al  tau( 176) = (   0.4156060   2.1560703   0.6917610  )
       177           Al  tau( 177) = (  -0.2777202   2.5691116   0.1377405  )
       178           Al  tau( 178) = (   0.1383725   2.4313484   0.9698076  )
       179           Al  tau( 179) = (  -0.2776496   2.4312789   0.2765542  )
       180           Al  tau( 180) = (  -0.0004031   2.5690130   0.1377389  )
       181           Al  tau( 181) = (   0.1383805   2.5688318   0.2762722  )
       182           Al  tau( 182) = (  -0.0003025   2.4311695   0.2765581  )
       183           Al  tau( 183) = (   0.1383601   2.4309850   0.4151861  )
       184           Al  tau( 184) = (   0.1383215   2.5687890   0.5538750  )
       185           Al  tau( 185) = (   0.1383447   2.4311677   0.6923617  )
       186           Al  tau( 186) = (   0.2770591   2.4313017   0.8310501  )
       187           Al  tau( 187) = (   0.1383632   2.5690214   0.8312168  )
       188           Al  tau( 188) = (   0.4156753   2.5691116   0.8312251  )
       189           Al  tau( 189) = (  -0.1389974   2.4313123   0.1378351  )
       190           Al  tau( 190) = (  -0.1390066   2.5689466   0.2763213  )
       191           Al  tau( 191) = (  -0.0002938   2.5688016   0.4150020  )
       192           Al  tau( 192) = (  -0.1389448   2.4311012   0.4151768  )
       193           Al  tau( 193) = (  -0.0003415   2.4309850   0.5537478  )
       194           Al  tau( 194) = (  -0.1389945   2.5687541   0.5537851  )
       195           Al  tau( 195) = (  -0.0003519   2.5688270   0.6926027  )
       196           Al  tau( 196) = (   0.2769684   2.4311000   0.5537497  )
       197           Al  tau( 197) = (   0.2769929   2.5689368   0.6926197  )
       198           Al  tau( 198) = (   0.4157186   2.4312816   0.6923127  )
       199           Al  tau( 199) = (  -0.2778366   2.8455219   0.1376300  )
       200           Al  tau( 200) = (   0.1382524   2.7071483   0.9698718  )
       201           Al  tau( 201) = (  -0.2778412   2.7068623   0.2760895  )
       202           Al  tau( 202) = (  -0.0003143   2.8451646   0.1372852  )
       203           Al  tau( 203) = (   0.1381748   2.8440835   0.2758038  )
       204           Al  tau( 204) = (  -0.0004681   2.7065982   0.2761267  )
       205           Al  tau( 205) = (   0.1383441   2.7064004   0.4149970  )
       206           Al  tau( 206) = (   0.1386381   2.8437844   0.5538414  )
       207           Al  tau( 207) = (   0.1384530   2.7065922   0.6927651  )
       208           Al  tau( 208) = (   0.2769199   2.7071418   0.8313693  )
       209           Al  tau( 209) = (   0.1379110   2.8450347   0.8317392  )
       210           Al  tau( 210) = (   0.4154383   2.8454066   0.8315061  )
       211           Al  tau( 211) = (  -0.1390819   2.7071572   0.1376282  )
       212           Al  tau( 212) = (  -0.1390215   2.8445734   0.2759238  )
       213           Al  tau( 213) = (  -0.0004813   2.8437991   0.4148082  )
       214           Al  tau( 214) = (  -0.1391605   2.7064930   0.4148832  )
       215           Al  tau( 215) = (  -0.0002502   2.7064215   0.5538221  )
       216           Al  tau( 216) = (  -0.1389615   2.8438808   0.5537886  )
       217           Al  tau( 217) = (  -0.0001054   2.8440412   0.6928742  )
       218           Al  tau( 218) = (   0.2772164   2.7064667   0.5540092  )
       219           Al  tau( 219) = (   0.2769508   2.8444636   0.6929772  )
       220           Al  tau( 220) = (   0.4157543   2.7068217   0.6928452  )
       221           Al  tau( 221) = (  -0.2770453   3.1229785   0.1393886  )
       222           Al  tau( 222) = (   0.5537888   2.9849823   0.8312931  )
       223           Al  tau( 223) = (  -0.2772843   2.9830570   0.2759120  )
       224           Al  tau( 224) = (   0.0017818   3.1218331   0.1399703  )
       225           Al  tau( 225) = (   0.1384451   3.1206241   0.2753056  )
       226           Al  tau( 226) = (  -0.0007878   2.9821569   0.2760272  )
       227           Al  tau( 227) = (   0.1380508   2.9804186   0.4142943  )
       228           Al  tau( 228) = (   0.1390969   3.1169972   0.5534456  )
       229           Al  tau( 229) = (   0.1392238   2.9819181   0.6925746  )
       230           Al  tau( 230) = (   0.2758274   2.9837208   0.8318468  )
       231           Al  tau( 231) = (   0.1364224   3.1214234   0.8292524  )
       232           Al  tau( 232) = (   0.4122538   3.1215268   0.8298602  )
       233           Al  tau( 233) = (  -0.1387185   2.9842811   0.1373323  )
       234           Al  tau( 234) = (  -0.1392864   3.1217267   0.2766318  )
       235           Al  tau( 235) = (  -0.0002753   3.1174430   0.4144640  )
       236           Al  tau( 236) = (  -0.1394403   2.9814890   0.4148544  )
       237           Al  tau( 237) = (   0.0002950   2.9803296   0.5539725  )
       238           Al  tau( 238) = (  -0.1387931   3.1178244   0.5533715  )
       239           Al  tau( 239) = (   0.0002992   3.1192448   0.6928964  )
       240           Al  tau( 240) = (   0.2778181   2.9816662   0.5540298  )
       241           Al  tau( 241) = (   0.2771545   3.1228543   0.6932378  )
       242           Al  tau( 242) = (   0.4150147   2.9827050   0.6928690  )
       243           Al  tau( 243) = (  -0.2775639   1.7486823   0.1365183  )
       244           Al  tau( 244) = (   0.5498094   3.2523003   0.8317162  )
       245           Al  tau( 245) = (  -0.2800232   3.2681109   0.2758448  )
       246           Al  tau( 246) = (   0.0033121   1.7446600   0.1392079  )
       247           Al  tau( 247) = (   0.1411099   1.7363342   0.2741582  )
       248           Al  tau( 248) = (   0.0015962   3.2603838   0.2818335  )
       249           Al  tau( 249) = (   0.1396252   3.2530401   0.4159848  )
       250           Al  tau( 250) = (   0.1430167   1.7448497   0.5546441  )
       251           Al  tau( 251) = (   0.1384892   3.2597611   0.6849381  )
       252           Al  tau( 252) = (   0.2692067   3.2596333   0.8335248  )
       253           Al  tau( 253) = (   0.1373827   1.7441677   0.8286303  )
       254           Al  tau( 254) = (   0.4171738   1.7476359   0.8321315  )
       255           Al  tau( 255) = (  -0.1351858   3.2549979   0.1387274  )
       256           Al  tau( 256) = (  -0.1386290   1.7406334   0.2688218  )
       257           Al  tau( 257) = (  -0.0075633   1.7408244   0.4171788  )
       258           Al  tau( 258) = (  -0.1400794   3.2564431   0.4122165  )
       259           Al  tau( 259) = (  -0.0004686   3.2518137   0.5525426  )
       260           Al  tau( 260) = (   0.2735075   1.7456898   0.4156553  )
       261           Al  tau( 261) = (  -0.0022210   1.7329029   0.6924372  )
       262           Al  tau( 262) = (   0.2804007   3.2558625   0.5553254  )
       263           Al  tau( 263) = (   0.2790994   1.7401410   0.6982704  )
       264           Al  tau( 264) = (   0.4180838   3.2637366   0.6901498  )

   Crystallographic axes

     site n.     atom                  positions (cryst. coord.)
         1           Al  tau(   1) = (  0.0022235  0.0061440  0.9836111  )
         2           Mg  tau(   2) = (  0.0770829  0.0395660  0.3584476  )
         3           Mg  tau(   3) = (  0.1550306  0.0403216  0.8968398  )
         4           Mg  tau(   4) = (  0.3483509  0.9997243  0.0826343  )
         5           Mg  tau(   5) = (  0.4282274  0.9997561  0.6282489  )
         6           Si  tau(   6) = (  0.0594495  0.9962572  0.6533680  )
         7           Si  tau(   7) = (  0.1793655  0.9979987  0.2022555  )
         8           Al  tau(   8) = (  0.2281689  0.9963049  0.6220239  )
         9           Al  tau(   9) = (  0.2779793  0.0403021  0.3617810  )
        10           Si  tau(  10) = (  0.3204255  0.0414097  0.7721475  )
        11           Si  tau(  11) = (  0.4423269  0.0420903  0.3252961  )
        12           Al  tau(  12) = (  0.5013140  0.0426254  0.9903445  )
        13           Mg  tau(  13) = (  0.5730071  0.0000368  0.3534524  )
        14           Mg  tau(  14) = (  0.6536170  0.9991472  0.8998772  )
        15           Mg  tau(  15) = (  0.8484238  0.0393816  0.0801748  )
        16           Mg  tau(  16) = (  0.9240234  0.0395972  0.6137993  )
        17           Si  tau(  17) = (  0.5604331  0.0417171  0.6559685  )
        18           Si  tau(  18) = (  0.6825556  0.0411440  0.2067511  )
        19           Al  tau(  19) = (  0.7245907  0.0397564  0.6176131  )
        20           Al  tau(  20) = (  0.7740127  0.9961748  0.3581850  )
        21           Si  tau(  21) = (  0.8233306  0.9969655  0.7763922  )
        22           Si  tau(  22) = (  0.9420086  0.9935986  0.3090122  )
        23           Al  tau(  23) = (  0.0011864  0.0803259  0.9875583  )
        24           Mg  tau(  24) = (  0.0716942  0.1252725  0.3332012  )
        25           Mg  tau(  25) = (  0.1518088  0.1256957  0.8989566  )
        26           Mg  tau(  26) = (  0.3497109  0.0839513  0.0771289  )
        27           Mg  tau(  27) = (  0.4292411  0.0841048  0.6400563  )
        28           Si  tau(  28) = (  0.0597445  0.0829072  0.6541124  )
        29           Si  tau(  29) = (  0.1828509  0.0831672  0.2037656  )
        30           Al  tau(  30) = (  0.2232933  0.0836026  0.6138803  )
        31           Al  tau(  31) = (  0.2787620  0.1259789  0.3627898  )
        32           Si  tau(  32) = (  0.3190712  0.1263106  0.7732608  )
        33           Si  tau(  33) = (  0.4425268  0.1264161  0.3240802  )
        34           Al  tau(  34) = (  0.5014884  0.1264752  0.9895130  )
        35           Mg  tau(  35) = (  0.5737741  0.0840513  0.3398229  )
        36           Mg  tau(  36) = (  0.6531986  0.0836884  0.9017530  )
        37           Mg  tau(  37) = (  0.8508261  0.1253879  0.0786656  )
        38           Mg  tau(  38) = (  0.9308180  0.1253297  0.6445399  )
        39           Si  tau(  39) = (  0.5604665  0.1262418  0.6548825  )
        40           Si  tau(  40) = (  0.6837909  0.1261348  0.2052841  )
        41           Al  tau(  41) = (  0.7241894  0.1257436  0.6157398  )
        42           Al  tau(  42) = (  0.7793785  0.0833634  0.3638937  )
        43           Si  tau(  43) = (  0.8196830  0.0827405  0.7739727  )
        44           Si  tau(  44) = (  0.9426561  0.0823562  0.3214716  )
        45           Al  tau(  45) = (  0.0013402  0.1681837  0.9890480  )
        46           Mg  tau(  46) = (  0.0726367  0.2108498  0.3365977  )
        47           Mg  tau(  47) = (  0.1521977  0.2109991  0.8997687  )
        48           Mg  tau(  48) = (  0.3503235  0.1688236  0.0783561  )
        49           Mg  tau(  49) = (  0.4297493  0.1687957  0.6410989  )
        50           Si  tau(  50) = (  0.0599759  0.1683529  0.6542915  )
        51           Si  tau(  51) = (  0.1832453  0.1685067  0.2040100  )
        52           Al  tau(  52) = (  0.2229920  0.1686293  0.6136854  )
        53           Al  tau(  53) = (  0.2793757  0.2111337  0.3640183  )
        54           Si  tau(  54) = (  0.3193018  0.2112192  0.7739353  )
        55           Si  tau(  55) = (  0.4426788  0.2113932  0.3238373  )
        56           Al  tau(  56) = (  0.5014465  0.2112529  0.9892826  )
        57           Mg  tau(  57) = (  0.5731530  0.1688002  0.3376719  )
        58           Mg  tau(  58) = (  0.6525306  0.1686776  0.9002924  )
        59           Mg  tau(  59) = (  0.8506044  0.2108254  0.0786908  )
        60           Mg  tau(  60) = (  0.9300943  0.2108797  0.6418990  )
        61           Si  tau(  61) = (  0.5601626  0.2112437  0.6546528  )
        62           Si  tau(  62) = (  0.6835544  0.2111198  0.2046704  )
        63           Al  tau(  63) = (  0.7234809  0.2110360  0.6145769  )
        64           Al  tau(  64) = (  0.7797300  0.1684978  0.3647940  )
        65           Si  tau(  65) = (  0.8194707  0.1683565  0.7744084  )
        66           Si  tau(  66) = (  0.9426831  0.1680651  0.3238304  )
        67           Al  tau(  67) = (  0.0014186  0.2534525  0.9893186  )
        68           Mg  tau(  68) = (  0.0731069  0.2959396  0.3376486  )
        69           Mg  tau(  69) = (  0.1525308  0.2960662  0.9004723  )
        70           Mg  tau(  70) = (  0.3506230  0.2539204  0.0787270  )
        71           Mg  tau(  71) = (  0.4301130  0.2538826  0.6419481  )
        72           Si  tau(  72) = (  0.0601369  0.2535277  0.6547010  )
        73           Si  tau(  73) = (  0.1835726  0.2536398  0.2047643  )
        74           Al  tau(  74) = (  0.2234619  0.2537278  0.6146696  )
        75           Al  tau(  75) = (  0.2798103  0.2962578  0.3651453  )
        76           Si  tau(  76) = (  0.3194742  0.2963982  0.7746261  )
        77           Si  tau(  77) = (  0.4426888  0.2966739  0.3240124  )
        78           Al  tau(  78) = (  0.5013345  0.2965908  0.9891484  )
        79           Mg  tau(  79) = (  0.5726284  0.2539064  0.3365522  )
        80           Mg  tau(  80) = (  0.6521538  0.2537741  0.8997797  )
        81           Mg  tau(  81) = (  0.8502606  0.2959232  0.0783061  )
        82           Mg  tau(  82) = (  0.9297086  0.2959485  0.6412733  )
        83           Si  tau(  83) = (  0.5599421  0.2964482  0.6542764  )
        84           Si  tau(  84) = (  0.6832150  0.2962714  0.2039465  )
        85           Al  tau(  85) = (  0.7228793  0.2961433  0.6134896  )
        86           Al  tau(  86) = (  0.7793445  0.2536413  0.3639896  )
        87           Si  tau(  87) = (  0.8192361  0.2535442  0.7739176  )
        88           Si  tau(  88) = (  0.9426498  0.2533561  0.3238696  )
        89           Al  tau(  89) = (  0.0014124  0.3382350  0.9896134  )
        90           Mg  tau(  90) = (  0.0735919  0.3806065  0.3398296  )
        91           Mg  tau(  91) = (  0.1530844  0.3809702  0.9019881  )
        92           Mg  tau(  92) = (  0.3506656  0.3393362  0.0789644  )
        93           Mg  tau(  93) = (  0.4310769  0.3395280  0.6462543  )
        94           Si  tau(  94) = (  0.0604188  0.3384563  0.6549632  )
        95           Si  tau(  95) = (  0.1836737  0.3385551  0.2055418  )
        96           Al  tau(  96) = (  0.2241874  0.3389829  0.6160431  )
        97           Al  tau(  97) = (  0.2792703  0.3812817  0.3643300  )
        98           Si  tau(  98) = (  0.3196749  0.3819860  0.7744964  )
        99           Si  tau(  99) = (  0.4426341  0.3822262  0.3217943  )
       100           Al  tau( 100) = (  0.5010676  0.3856825  0.9881443  )
       101           Mg  tau( 101) = (  0.5713455  0.3395712  0.3318833  )
       102           Mg  tau( 102) = (  0.6518620  0.3390930  0.8990780  )
       103           Mg  tau( 103) = (  0.8495611  0.3807379  0.0773633  )
       104           Mg  tau( 104) = (  0.9291628  0.3805591  0.6403449  )
       105           Si  tau( 105) = (  0.5596343  0.3818209  0.6550661  )
       106           Si  tau( 106) = (  0.6826485  0.3816234  0.2039340  )
       107           Al  tau( 107) = (  0.7232000  0.3810876  0.6141544  )
       108           Al  tau( 108) = (  0.7786130  0.3387929  0.3627942  )
       109           Si  tau( 109) = (  0.8190506  0.3384125  0.7733162  )
       110           Si  tau( 110) = (  0.9424140  0.3382877  0.3242019  )
       111           Al  tau( 111) = (  0.0011607  0.4221042  0.9905797  )
       112           Mg  tau( 112) = (  0.0730600  0.4646014  0.3543565  )
       113           Mg  tau( 113) = (  0.1535628  0.4653913  0.9000882  )
       114           Mg  tau( 114) = (  0.3472967  0.4251407  0.0809074  )
       115           Mg  tau( 115) = (  0.4229446  0.4251115  0.6105325  )
       116           Si  tau( 116) = (  0.0602182  0.4228823  0.6561457  )
       117           Si  tau( 117) = (  0.1821254  0.4234702  0.2074683  )
       118           Al  tau( 118) = (  0.2243501  0.4248906  0.6181526  )
       119           Al  tau( 119) = (  0.2739878  0.4684241  0.3585675  )
       120           Si  tau( 120) = (  0.3237329  0.4675966  0.7775179  )
       121           Si  tau( 121) = (  0.4424872  0.4708038  0.3098731  )
       122           Al  tau( 122) = (  0.5018012  0.4572727  0.9857002  )
       123           Mg  tau( 123) = (  0.5780873  0.4251100  0.3641147  )
       124           Mg  tau( 124) = (  0.6557670  0.4243986  0.8975696  )
       125           Mg  tau( 125) = (  0.8479913  0.4649166  0.0831693  )
       126           Mg  tau( 126) = (  0.9278770  0.4648564  0.6276890  )
       127           Si  tau( 127) = (  0.5587965  0.4686842  0.6570923  )
       128           Si  tau( 128) = (  0.6785104  0.4667304  0.2027877  )
       129           Al  tau( 129) = (  0.7277600  0.4683127  0.6229589  )
       130           Al  tau( 130) = (  0.7778786  0.4244305  0.3621370  )
       131           Si  tau( 131) = (  0.8205304  0.4232628  0.7723999  )
       132           Si  tau( 132) = (  0.9421472  0.4225516  0.3254404  )
       133           Al  tau( 133) = (  0.0449739  0.5916126  0.7255298  )
       134           Al  tau( 134) = (  0.9988146  0.5514035  0.9981915  )
       135           Al  tau( 135) = (  0.1816827  0.5509284  0.9073709  )
       136           Al  tau( 136) = (  0.1359958  0.5912140  0.1797130  )
       137           Al  tau( 137) = (  0.3175894  0.5908172  0.0917645  )
       138           Al  tau( 138) = (  0.2726671  0.5498639  0.3632628  )
       139           Al  tau( 139) = (  0.4514279  0.5500276  0.2757457  )
       140           Al  tau( 140) = (  0.5895114  0.5903484  0.4523360  )
       141           Al  tau( 141) = (  0.7263297  0.5501613  0.6358692  )
       142           Al  tau( 142) = (  0.9076003  0.5515184  0.5437403  )
       143           Al  tau( 143) = (  0.8622445  0.5912622  0.8178519  )
       144           Al  tau( 144) = (  0.9527361  0.5915998  0.2715074  )
       145           Al  tau( 145) = (  0.0899810  0.5516299  0.4517876  )
       146           Al  tau( 146) = (  0.2269483  0.5910823  0.6339987  )
       147           Al  tau( 147) = (  0.4085720  0.5904735  0.5474304  )
       148           Al  tau( 148) = (  0.3605468  0.5501374  0.8186907  )
       149           Al  tau( 149) = (  0.5462542  0.5496936  0.7267733  )
       150           Al  tau( 150) = (  0.4990150  0.5901409  0.0001185  )
       151           Al  tau( 151) = (  0.6803819  0.5907399  0.9066355  )
       152           Al  tau( 152) = (  0.6379557  0.5500597  0.1789726  )
       153           Al  tau( 153) = (  0.7710561  0.5910255  0.3631063  )
       154           Al  tau( 154) = (  0.8161900  0.5505983  0.0885394  )
       155           Al  tau( 155) = (  0.0445307  0.6717554  0.7264896  )
       156           Al  tau( 156) = (  0.9990458  0.6315312  0.9991564  )
       157           Al  tau( 157) = (  0.1814436  0.6314610  0.9084748  )
       158           Al  tau( 158) = (  0.1356809  0.6717471  0.1809966  )
       159           Al  tau( 159) = (  0.3176331  0.6716350  0.0905120  )
       160           Al  tau( 160) = (  0.2723621  0.6313192  0.3636332  )
       161           Al  tau( 161) = (  0.4538841  0.6310222  0.2728257  )
       162           Al  tau( 162) = (  0.5897219  0.6715349  0.4537979  )
       163           Al  tau( 163) = (  0.7256737  0.6312934  0.6348566  )
       164           Al  tau( 164) = (  0.9077125  0.6315479  0.5445672  )
       165           Al  tau( 165) = (  0.8623343  0.6717419  0.8175333  )
       166           Al  tau( 166) = (  0.9534422  0.6717651  0.2719290  )
       167           Al  tau( 167) = (  0.0901754  0.6315517  0.4533816  )
       168           Al  tau( 168) = (  0.2266496  0.6717030  0.6357825  )
       169           Al  tau( 169) = (  0.4083112  0.6715373  0.5451609  )
       170           Al  tau( 170) = (  0.3631918  0.6311414  0.8188862  )
       171           Al  tau( 171) = (  0.5442548  0.6309892  0.7264850  )
       172           Al  tau( 172) = (  0.4990286  0.6715301  0.9994982  )
       173           Al  tau( 173) = (  0.6803700  0.6716242  0.9082432  )
       174           Al  tau( 174) = (  0.6348535  0.6311116  0.1802783  )
       175           Al  tau( 175) = (  0.7713389  0.6717026  0.3628423  )
       176           Al  tau( 176) = (  0.8164571  0.6314581  0.0896170  )
       177           Al  tau( 177) = (  0.0444142  0.7524274  0.7267753  )
       178           Al  tau( 178) = (  0.9989985  0.7120800  0.9993917  )
       179           Al  tau( 179) = (  0.1809374  0.7120597  0.9086364  )
       180           Al  tau( 180) = (  0.1353110  0.7523985  0.1813836  )
       181           Al  tau( 181) = (  0.3170253  0.7523454  0.0900752  )
       182           Al  tau( 182) = (  0.2718493  0.7120276  0.3631928  )
       183           Al  tau( 183) = (  0.4536172  0.7119736  0.2722467  )
       184           Al  tau( 184) = (  0.5899818  0.7523329  0.4541589  )
       185           Al  tau( 185) = (  0.7261678  0.7120271  0.6356844  )
       186           Al  tau( 186) = (  0.9080120  0.7120664  0.5447154  )
       187           Al  tau( 187) = (  0.8627145  0.7524009  0.8177023  )
       188           Al  tau( 188) = (  0.9536194  0.7524273  0.2723335  )
       189           Al  tau( 189) = (  0.0899775  0.7120695  0.4540782  )
       190           Al  tau( 190) = (  0.2261524  0.7523790  0.6356667  )
       191           Al  tau( 191) = (  0.4079885  0.7523366  0.5446909  )
       192           Al  tau( 192) = (  0.3627138  0.7120076  0.8176001  )
       193           Al  tau( 193) = (  0.5444061  0.7119736  0.7266955  )
       194           Al  tau( 194) = (  0.4989955  0.7523227  0.9994285  )
       195           Al  tau( 195) = (  0.6809432  0.7523440  0.9087699  )
       196           Al  tau( 196) = (  0.6353038  0.7120073  0.1813227  )
       197           Al  tau( 197) = (  0.7718672  0.7523762  0.3633482  )
       198           Al  tau( 198) = (  0.8170366  0.7120605  0.0901190  )
       199           Al  tau( 199) = (  0.0442675  0.8333809  0.7268592  )
       200           Al  tau( 200) = (  0.9990222  0.7928548  0.9997121  )
       201           Al  tau( 201) = (  0.1804177  0.7927710  0.9084039  )
       202           Al  tau( 202) = (  0.1348940  0.8332762  0.1806140  )
       203           Al  tau( 203) = (  0.3164973  0.8329596  0.0898657  )
       204           Al  tau( 204) = (  0.2713708  0.7926937  0.3629529  )
       205           Al  tau( 205) = (  0.4534259  0.7926357  0.2720301  )
       206           Al  tau( 206) = (  0.5900525  0.8328720  0.4534920  )
       207           Al  tau( 207) = (  0.7266000  0.7926919  0.6360004  )
       208           Al  tau( 208) = (  0.9082802  0.7928529  0.5454077  )
       209           Al  tau( 209) = (  0.8630801  0.8332382  0.8192766  )
       210           Al  tau( 210) = (  0.9538180  0.8333471  0.2731680  )
       211           Al  tau( 211) = (  0.0897463  0.7928574  0.4539730  )
       212           Al  tau( 212) = (  0.2257567  0.8331031  0.6351749  )
       213           Al  tau( 213) = (  0.4077365  0.8328763  0.5448057  )
       214           Al  tau( 214) = (  0.3623543  0.7926629  0.8176393  )
       215           Al  tau( 215) = (  0.5445091  0.7926419  0.7266135  )
       216           Al  tau( 216) = (  0.4990098  0.8329003  0.9993682  )
       217           Al  tau( 217) = (  0.6812909  0.8329472  0.9086412  )
       218           Al  tau( 218) = (  0.6356403  0.7926552  0.1811751  )
       219           Al  tau( 219) = (  0.7722050  0.8330710  0.3638997  )
       220           Al  tau( 220) = (  0.8175719  0.7927592  0.0907468  )
       221           Al  tau( 221) = (  0.0462561  0.9146409  0.7276089  )
       222           Al  tau( 222) = (  0.9989568  0.8742253  0.0007997  )
       223           Al  tau( 223) = (  0.1804256  0.8736614  0.9070760  )
       224           Al  tau( 224) = (  0.1382214  0.9143054  0.1800123  )
       225           Al  tau( 225) = (  0.3160960  0.9139513  0.0886807  )
       226           Al  tau( 226) = (  0.2711682  0.8733978  0.3634514  )
       227           Al  tau( 227) = (  0.4526388  0.8728887  0.2716856  )
       228           Al  tau( 228) = (  0.5898137  0.9128891  0.4520708  )
       229           Al  tau( 229) = (  0.7266653  0.8733279  0.6342348  )
       230           Al  tau( 230) = (  0.9083917  0.8738558  0.5481823  )
       231           Al  tau( 231) = (  0.8601468  0.9141854  0.8189437  )
       232           Al  tau( 232) = (  0.9511558  0.9142157  0.2772728  )
       233           Al  tau( 233) = (  0.0895745  0.8740199  0.4528704  )
       234           Al  tau( 234) = (  0.2263660  0.9142742  0.6366241  )
       235           Al  tau( 235) = (  0.4074656  0.9130197  0.5439491  )
       236           Al  tau( 236) = (  0.3622343  0.8732022  0.8181518  )
       237           Al  tau( 237) = (  0.5448357  0.8728626  0.7257385  )
       238           Al  tau( 238) = (  0.4986547  0.9131314  0.9984901  )
       239           Al  tau( 239) = (  0.6814454  0.9135474  0.9078746  )
       240           Al  tau( 240) = (  0.6358578  0.8732541  0.1800189  )
       241           Al  tau( 241) = (  0.7725280  0.9146045  0.3638408  )
       242           Al  tau( 242) = (  0.8173528  0.8735583  0.0922325  )
       243           Al  tau( 243) = (  0.0432636  0.5121445  0.7248655  )
       244           Al  tau( 244) = (  0.9980684  0.9525159  0.0091806  )
       245           Al  tau( 245) = (  0.1794619  0.9571464  0.9123744  )
       246           Al  tau( 246) = (  0.1379733  0.5109665  0.1760030  )
       247           Al  tau( 247) = (  0.3158412  0.5085281  0.0819356  )
       248           Al  tau( 248) = (  0.2776592  0.9548834  0.3663754  )
       249           Al  tau( 249) = (  0.4548173  0.9527326  0.2708057  )
       250           Al  tau( 250) = (  0.5922770  0.5110221  0.4459334  )
       251           Al  tau( 251) = (  0.7189153  0.9547010  0.6256672  )
       252           Al  tau( 252) = (  0.9078716  0.9546636  0.5634031  )
       253           Al  tau( 253) = (  0.8598498  0.5108223  0.8162395  )
       254           Al  tau( 254) = (  0.9550018  0.5118381  0.2705747  )
       255           Al  tau( 255) = (  0.0921043  0.9533060  0.4477519  )
       256           Al  tau( 256) = (  0.2189017  0.5097872  0.6250915  )
       257           Al  tau( 257) = (  0.4077462  0.5098431  0.5618415  )
       258           Al  tau( 258) = (  0.3594309  0.9537292  0.8159502  )
       259           Al  tau( 259) = (  0.5431793  0.9523734  0.7253655  )
       260           Al  tau( 260) = (  0.4983769  0.5112681  0.0070722  )
       261           Al  tau( 261) = (  0.6801678  0.5075231  0.9122291  )
       262           Al  tau( 262) = (  0.6379784  0.9535592  0.1766384  )
       263           Al  tau( 263) = (  0.7781142  0.5096430  0.3666142  )
       264           Al  tau( 264) = (  0.8156849  0.9558653  0.0826315  )

     number of k points=    80  Methfessel-Paxton smearing, width (Ry)=  0.0441
                       cart. coord. in units 2pi/alat
        k(    1) = (   0.0000000   0.0000000   0.0000000), wk =   0.0128205
        k(    2) = (  -0.1512819   0.0000000   0.1008546), wk =   0.0256410
        k(    3) = (  -0.3025637   0.0000000   0.2017092), wk =   0.0256410
        k(    4) = (  -0.4538456   0.0000000   0.3025637), wk =   0.0256410
        k(    5) = (  -0.6051275   0.0000000   0.4034183), wk =   0.0256410
        k(    6) = (  -0.7564093   0.0000000   0.5042729), wk =   0.0256410
        k(    7) = (  -0.9076912   0.0000000   0.6051275), wk =   0.0256410
        k(    8) = (   0.0000000  -0.1464373   0.0000000), wk =   0.0128205
        k(    9) = (  -0.1512819  -0.1464373   0.1008546), wk =   0.0256410
        k(   10) = (  -0.3025637  -0.1464373   0.2017092), wk =   0.0256410
        k(   11) = (  -0.4538456  -0.1464373   0.3025637), wk =   0.0256410
        k(   12) = (  -0.6051275  -0.1464373   0.4034183), wk =   0.0256410
        k(   13) = (  -0.7564093  -0.1464373   0.5042729), wk =   0.0256410
        k(   14) = (  -0.9076912  -0.1464373   0.6051275), wk =   0.0256410
        k(   15) = (   0.0546296   0.0000000   0.1638887), wk =   0.0256410
        k(   16) = (  -0.0966523   0.0000000   0.2647433), wk =   0.0256410
        k(   17) = (  -0.2479342   0.0000000   0.3655979), wk =   0.0256410
        k(   18) = (  -0.3992160   0.0000000   0.4664524), wk =   0.0256410
        k(   19) = (  -0.5504979   0.0000000   0.5673070), wk =   0.0256410
        k(   20) = (  -0.7017798   0.0000000   0.6681616), wk =   0.0256410
        k(   21) = (  -0.8530616   0.0000000   0.7690162), wk =   0.0256410
        k(   22) = (   0.9623207   0.0000000  -0.4412388), wk =   0.0256410
        k(   23) = (   0.8110389   0.0000000  -0.3403842), wk =   0.0256410
        k(   24) = (   0.6597570   0.0000000  -0.2395296), wk =   0.0256410
        k(   25) = (   0.5084751   0.0000000  -0.1386750), wk =   0.0256410
        k(   26) = (   0.3571933   0.0000000  -0.0378205), wk =   0.0256410
        k(   27) = (   0.2059114   0.0000000   0.0630341), wk =   0.0256410
        k(   28) = (   0.0546296  -0.1464373   0.1638887), wk =   0.0256410
        k(   29) = (  -0.0966523  -0.1464373   0.2647433), wk =   0.0256410
        k(   30) = (  -0.2479342  -0.1464373   0.3655979), wk =   0.0256410
        k(   31) = (  -0.3992160  -0.1464373   0.4664524), wk =   0.0256410
        k(   32) = (  -0.5504979  -0.1464373   0.5673070), wk =   0.0256410
        k(   33) = (  -0.7017798  -0.1464373   0.6681616), wk =   0.0256410
        k(   34) = (  -0.8530616  -0.1464373   0.7690162), wk =   0.0256410
        k(   35) = (   0.9623207  -0.1464373  -0.4412388), wk =   0.0256410
        k(   36) = (   0.8110389  -0.1464373  -0.3403842), wk =   0.0256410
        k(   37) = (   0.6597570  -0.1464373  -0.2395296), wk =   0.0256410
        k(   38) = (   0.5084751  -0.1464373  -0.1386750), wk =   0.0256410
        k(   39) = (   0.3571933  -0.1464373  -0.0378205), wk =   0.0256410
        k(   40) = (   0.2059114  -0.1464373   0.0630341), wk =   0.0256410
        k(   41) = (   0.1092591   0.0000000   0.3277774), wk =   0.0256410
        k(   42) = (  -0.0420227   0.0000000   0.4286320), wk =   0.0256410
        k(   43) = (  -0.1933046   0.0000000   0.5294866), wk =   0.0256410
        k(   44) = (  -0.3445865   0.0000000   0.6303411), wk =   0.0256410
        k(   45) = (  -0.4958683   0.0000000   0.7311957), wk =   0.0256410
        k(   46) = (  -0.6471502   0.0000000   0.8320503), wk =   0.0256410
        k(   47) = (  -0.7984321   0.0000000   0.9329049), wk =   0.0256410
        k(   48) = (   1.0169503   0.0000000  -0.2773501), wk =   0.0256410
        k(   49) = (   0.8656684   0.0000000  -0.1764955), wk =   0.0256410
        k(   50) = (   0.7143866   0.0000000  -0.0756409), wk =   0.0256410
        k(   51) = (   0.5631047   0.0000000   0.0252137), wk =   0.0256410
        k(   52) = (   0.4118228   0.0000000   0.1260682), wk =   0.0256410
        k(   53) = (   0.2605410   0.0000000   0.2269228), wk =   0.0256410
        k(   54) = (   0.1092591  -0.1464373   0.3277774), wk =   0.0256410
        k(   55) = (  -0.0420227  -0.1464373   0.4286320), wk =   0.0256410
        k(   56) = (  -0.1933046  -0.1464373   0.5294866), wk =   0.0256410
        k(   57) = (  -0.3445865  -0.1464373   0.6303411), wk =   0.0256410
        k(   58) = (  -0.4958683  -0.1464373   0.7311957), wk =   0.0256410
        k(   59) = (  -0.6471502  -0.1464373   0.8320503), wk =   0.0256410
        k(   60) = (  -0.7984321  -0.1464373   0.9329049), wk =   0.0256410
        k(   61) = (   1.0169503  -0.1464373  -0.2773501), wk =   0.0256410
        k(   62) = (   0.8656684  -0.1464373  -0.1764955), wk =   0.0256410
        k(   63) = (   0.7143866  -0.1464373  -0.0756409), wk =   0.0256410
        k(   64) = (   0.5631047  -0.1464373   0.0252137), wk =   0.0256410
        k(   65) = (   0.4118228  -0.1464373   0.1260682), wk =   0.0256410
        k(   66) = (   0.2605410  -0.1464373   0.2269228), wk =   0.0256410
        k(   67) = (  -0.1638887   0.0000000  -0.4916661), wk =   0.0128205
        k(   68) = (  -0.3151705   0.0000000  -0.3908115), wk =   0.0256410
        k(   69) = (  -0.4664524   0.0000000  -0.2899569), wk =   0.0256410
        k(   70) = (  -0.6177343   0.0000000  -0.1891024), wk =   0.0256410
        k(   71) = (  -0.7690161   0.0000000  -0.0882478), wk =   0.0256410
        k(   72) = (  -0.9202980   0.0000000   0.0126068), wk =   0.0256410
        k(   73) = (  -1.0715799   0.0000000   0.1134614), wk =   0.0256410
        k(   74) = (  -0.1638887  -0.1464373  -0.4916661), wk =   0.0128205
        k(   75) = (  -0.3151705  -0.1464373  -0.3908115), wk =   0.0256410
        k(   76) = (  -0.4664524  -0.1464373  -0.2899569), wk =   0.0256410
        k(   77) = (  -0.6177343  -0.1464373  -0.1891024), wk =   0.0256410
        k(   78) = (  -0.7690161  -0.1464373  -0.0882478), wk =   0.0256410
        k(   79) = (  -0.9202980  -0.1464373   0.0126068), wk =   0.0256410
        k(   80) = (  -1.0715799  -0.1464373   0.1134614), wk =   0.0256410

                       cryst. coord.
        k(    1) = (   0.0000000   0.0000000   0.0000000), wk =   0.0128205
        k(    2) = (   0.0000000   0.0000000   0.0769231), wk =   0.0256410
        k(    3) = (   0.0000000   0.0000000   0.1538462), wk =   0.0256410
        k(    4) = (   0.0000000   0.0000000   0.2307692), wk =   0.0256410
        k(    5) = (   0.0000000   0.0000000   0.3076923), wk =   0.0256410
        k(    6) = (  -0.0000000   0.0000000   0.3846154), wk =   0.0256410
        k(    7) = (   0.0000000   0.0000000   0.4615385), wk =   0.0256410
        k(    8) = (   0.0000000  -0.5000000   0.0000000), wk =   0.0128205
        k(    9) = (   0.0000000  -0.5000000   0.0769231), wk =   0.0256410
        k(   10) = (   0.0000000  -0.5000000   0.1538462), wk =   0.0256410
        k(   11) = (   0.0000000  -0.5000000   0.2307692), wk =   0.0256410
        k(   12) = (   0.0000000  -0.5000000   0.3076923), wk =   0.0256410
        k(   13) = (  -0.0000000  -0.5000000   0.3846154), wk =   0.0256410
        k(   14) = (   0.0000000  -0.5000000   0.4615385), wk =   0.0256410
        k(   15) = (   0.1666667   0.0000000   0.0000000), wk =   0.0256410
        k(   16) = (   0.1666667   0.0000000   0.0769231), wk =   0.0256410
        k(   17) = (   0.1666667   0.0000000   0.1538462), wk =   0.0256410
        k(   18) = (   0.1666667   0.0000000   0.2307692), wk =   0.0256410
        k(   19) = (   0.1666667   0.0000000   0.3076923), wk =   0.0256410
        k(   20) = (   0.1666667   0.0000000   0.3846154), wk =   0.0256410
        k(   21) = (   0.1666667   0.0000000   0.4615385), wk =   0.0256410
        k(   22) = (   0.1666667   0.0000000  -0.4615385), wk =   0.0256410
        k(   23) = (   0.1666667   0.0000000  -0.3846154), wk =   0.0256410
        k(   24) = (   0.1666667   0.0000000  -0.3076923), wk =   0.0256410
        k(   25) = (   0.1666667   0.0000000  -0.2307692), wk =   0.0256410
        k(   26) = (   0.1666667   0.0000000  -0.1538462), wk =   0.0256410
        k(   27) = (   0.1666667   0.0000000  -0.0769231), wk =   0.0256410
        k(   28) = (   0.1666667  -0.5000000   0.0000000), wk =   0.0256410
        k(   29) = (   0.1666667  -0.5000000   0.0769231), wk =   0.0256410
        k(   30) = (   0.1666667  -0.5000000   0.1538462), wk =   0.0256410
        k(   31) = (   0.1666667  -0.5000000   0.2307692), wk =   0.0256410
        k(   32) = (   0.1666667  -0.5000000   0.3076923), wk =   0.0256410
        k(   33) = (   0.1666667  -0.5000000   0.3846154), wk =   0.0256410
        k(   34) = (   0.1666667  -0.5000000   0.4615385), wk =   0.0256410
        k(   35) = (   0.1666667  -0.5000000  -0.4615385), wk =   0.0256410
        k(   36) = (   0.1666667  -0.5000000  -0.3846154), wk =   0.0256410
        k(   37) = (   0.1666667  -0.5000000  -0.3076923), wk =   0.0256410
        k(   38) = (   0.1666667  -0.5000000  -0.2307692), wk =   0.0256410
        k(   39) = (   0.1666667  -0.5000000  -0.1538462), wk =   0.0256410
        k(   40) = (   0.1666667  -0.5000000  -0.0769231), wk =   0.0256410
        k(   41) = (   0.3333333   0.0000000   0.0000000), wk =   0.0256410
        k(   42) = (   0.3333333   0.0000000   0.0769231), wk =   0.0256410
        k(   43) = (   0.3333333   0.0000000   0.1538462), wk =   0.0256410
        k(   44) = (   0.3333333   0.0000000   0.2307692), wk =   0.0256410
        k(   45) = (   0.3333333   0.0000000   0.3076923), wk =   0.0256410
        k(   46) = (   0.3333333   0.0000000   0.3846154), wk =   0.0256410
        k(   47) = (   0.3333333   0.0000000   0.4615385), wk =   0.0256410
        k(   48) = (   0.3333333   0.0000000  -0.4615385), wk =   0.0256410
        k(   49) = (   0.3333333   0.0000000  -0.3846154), wk =   0.0256410
        k(   50) = (   0.3333333   0.0000000  -0.3076923), wk =   0.0256410
        k(   51) = (   0.3333333   0.0000000  -0.2307692), wk =   0.0256410
        k(   52) = (   0.3333333   0.0000000  -0.1538462), wk =   0.0256410
        k(   53) = (   0.3333333   0.0000000  -0.0769231), wk =   0.0256410
        k(   54) = (   0.3333333  -0.5000000   0.0000000), wk =   0.0256410
        k(   55) = (   0.3333333  -0.5000000   0.0769231), wk =   0.0256410
        k(   56) = (   0.3333333  -0.5000000   0.1538462), wk =   0.0256410
        k(   57) = (   0.3333333  -0.5000000   0.2307692), wk =   0.0256410
        k(   58) = (   0.3333333  -0.5000000   0.3076923), wk =   0.0256410
        k(   59) = (   0.3333333  -0.5000000   0.3846154), wk =   0.0256410
        k(   60) = (   0.3333333  -0.5000000   0.4615385), wk =   0.0256410
        k(   61) = (   0.3333333  -0.5000000  -0.4615385), wk =   0.0256410
        k(   62) = (   0.3333333  -0.5000000  -0.3846154), wk =   0.0256410
        k(   63) = (   0.3333333  -0.5000000  -0.3076923), wk =   0.0256410
        k(   64) = (   0.3333333  -0.5000000  -0.2307692), wk =   0.0256410
        k(   65) = (   0.3333333  -0.5000000  -0.1538462), wk =   0.0256410
        k(   66) = (   0.3333333  -0.5000000  -0.0769231), wk =   0.0256410
        k(   67) = (  -0.5000000   0.0000000   0.0000000), wk =   0.0128205
        k(   68) = (  -0.5000000   0.0000000   0.0769231), wk =   0.0256410
        k(   69) = (  -0.5000000   0.0000000   0.1538462), wk =   0.0256410
        k(   70) = (  -0.5000000   0.0000000   0.2307692), wk =   0.0256410
        k(   71) = (  -0.5000000   0.0000000   0.3076923), wk =   0.0256410
        k(   72) = (  -0.5000000   0.0000000   0.3846154), wk =   0.0256410
        k(   73) = (  -0.5000000   0.0000000   0.4615385), wk =   0.0256410
        k(   74) = (  -0.5000000  -0.5000000   0.0000000), wk =   0.0128205
        k(   75) = (  -0.5000000  -0.5000000   0.0769231), wk =   0.0256410
        k(   76) = (  -0.5000000  -0.5000000   0.1538462), wk =   0.0256410
        k(   77) = (  -0.5000000  -0.5000000   0.2307692), wk =   0.0256410
        k(   78) = (  -0.5000000  -0.5000000   0.3076923), wk =   0.0256410
        k(   79) = (  -0.5000000  -0.5000000   0.3846154), wk =   0.0256410
        k(   80) = (  -0.5000000  -0.5000000   0.4615385), wk =   0.0256410

     Dense  grid:  4122069 G-vectors     FFT dimensions: ( 180, 625,  80)

     Smooth grid:  1043091 G-vectors     FFT dimensions: ( 120, 384,  50)

     Dynamical RAM for                 wfc:     118.09 MB

     Dynamical RAM for     wfc (w. buffer):     472.36 MB

     Dynamical RAM for           str. fact:      23.59 MB

     Dynamical RAM for           local pot:       0.00 MB

     Dynamical RAM for          nlocal pot:    1062.07 MB

     Dynamical RAM for                qrad:      21.15 MB

     Dynamical RAM for          rho,v,vnew:      49.34 MB

     Dynamical RAM for               rhoin:      16.45 MB

     Dynamical RAM for            rho*nmix:     125.80 MB

     Dynamical RAM for           G-vectors:      30.48 MB

     Dynamical RAM for          h,s,v(r/c):      41.31 MB

     Dynamical RAM for          <psi|beta>:      30.96 MB

     Dynamical RAM for                 psi:     472.36 MB

     Dynamical RAM for                hpsi:     472.36 MB

     Dynamical RAM for                spsi:     472.36 MB

     Dynamical RAM for      wfcinit/wfcrot:     550.60 MB

     Dynamical RAM for           addusdens:      84.95 MB

     Dynamical RAM for          addusforce:     218.11 MB

     Dynamical RAM for         addusstress:      47.72 MB

     Estimated static dynamical RAM per process >       1.83 GB

     Estimated max dynamical RAM per process >       3.29 GB

     Estimated total dynamical RAM >     946.39 GB

     Initial potential from superposition of free atoms

     starting charge  791.54406, renormalised to  792.00000
     Starting wfcs are 1056 randomized atomic wfcs
     Checking if some PAW data can be deallocated... 
       PAW data deallocated on  113 nodes for type:  1
       PAW data deallocated on  231 nodes for type:  2

     total cpu time spent up to now is      344.7 secs

     Self-consistent Calculation

     iteration #  1     ecut=    40.00 Ry     beta= 0.40
     Davidson diagonalization with overlap
     ethr =  1.00E-02,  avg # of iterations =  3.0

     total cpu time spent up to now is      863.5 secs

     total energy              =   -8798.69914063 Ry
     Harris-Foulkes estimate   =   -8800.41269938 Ry
     estimated scf accuracy    <     339.18844219 Ry

     iteration #  2     ecut=    40.00 Ry     beta= 0.40
     Davidson diagonalization with overlap
     ethr =  1.00E-02,  avg # of iterations =  1.0

     total cpu time spent up to now is     1237.6 secs

     total energy              =   -8796.81338369 Ry
     Harris-Foulkes estimate   =   -8799.31224029 Ry
     estimated scf accuracy    <     162.46805176 Ry

     iteration #  3     ecut=    40.00 Ry     beta= 0.40
     Davidson diagonalization with overlap
     ethr =  1.00E-02,  avg # of iterations =  1.0

     total cpu time spent up to now is     1611.4 secs

     total energy              =   -8797.99688801 Ry
     Harris-Foulkes estimate   =   -8798.06338107 Ry
     estimated scf accuracy    <       0.93871012 Ry

     iteration #  4     ecut=    40.00 Ry     beta= 0.40
     Davidson diagonalization with overlap
     ethr =  1.19E-04,  avg # of iterations =  8.4

     total cpu time spent up to now is     2312.7 secs

     total energy              =   -8798.17121982 Ry
     Harris-Foulkes estimate   =   -8798.18095185 Ry
     estimated scf accuracy    <       0.28073334 Ry

     iteration #  5     ecut=    40.00 Ry     beta= 0.40
     Davidson diagonalization with overlap
     ethr =  3.54E-05,  avg # of iterations =  1.5

     total cpu time spent up to now is     2693.6 secs

     total energy              =   -8798.16841636 Ry
     Harris-Foulkes estimate   =   -8798.17855966 Ry
     estimated scf accuracy    <       0.05726049 Ry

     iteration #  6     ecut=    40.00 Ry     beta= 0.40
     Davidson diagonalization with overlap
     ethr =  7.23E-06,  avg # of iterations =  7.6

     total cpu time spent up to now is     3179.8 secs

     total energy              =   -8798.17605118 Ry
     Harris-Foulkes estimate   =   -8798.17626045 Ry
     estimated scf accuracy    <       0.01929989 Ry

     iteration #  7     ecut=    40.00 Ry     beta= 0.40
     Davidson diagonalization with overlap
     c_bands:  1 eigenvalues not converged
     ethr =  2.44E-06,  avg # of iterations =  9.0

     total cpu time spent up to now is     3687.6 secs

     total energy              =   -8798.17866274 Ry
     Harris-Foulkes estimate   =   -8798.17886372 Ry
     estimated scf accuracy    <       0.00300785 Ry

     iteration #  8     ecut=    40.00 Ry     beta= 0.40
     Davidson diagonalization with overlap
     ethr =  3.80E-07,  avg # of iterations =  8.1

     total cpu time spent up to now is     4474.8 secs

     total energy              =   -8798.17971459 Ry
     Harris-Foulkes estimate   =   -8798.17975902 Ry
     estimated scf accuracy    <       0.00031193 Ry

     iteration #  9     ecut=    40.00 Ry     beta= 0.40
     Davidson diagonalization with overlap
     ethr =  3.94E-08,  avg # of iterations =  3.6

     total cpu time spent up to now is     5095.1 secs

     total energy              =   -8798.17968857 Ry
     Harris-Foulkes estimate   =   -8798.17974461 Ry
     estimated scf accuracy    <       0.00016073 Ry

     iteration # 10     ecut=    40.00 Ry     beta= 0.40
     Davidson diagonalization with overlap
     ethr =  2.03E-08,  avg # of iterations =  3.4

     total cpu time spent up to now is     5583.1 secs

     total energy              =   -8798.17970769 Ry
     Harris-Foulkes estimate   =   -8798.17971118 Ry
     estimated scf accuracy    <       0.00003122 Ry

     iteration # 11     ecut=    40.00 Ry     beta= 0.40
     Davidson diagonalization with overlap
     ethr =  3.94E-09,  avg # of iterations =  3.2

     total cpu time spent up to now is     6018.1 secs

     total energy              =   -8798.17970641 Ry
     Harris-Foulkes estimate   =   -8798.17970966 Ry
     estimated scf accuracy    <       0.00002455 Ry

     iteration # 12     ecut=    40.00 Ry     beta= 0.40
     Davidson diagonalization with overlap
     ethr =  3.10E-09,  avg # of iterations =  1.0

     total cpu time spent up to now is     6392.6 secs

     total energy              =   -8798.17970557 Ry
     Harris-Foulkes estimate   =   -8798.17970699 Ry
     estimated scf accuracy    <       0.00000638 Ry

     iteration # 13     ecut=    40.00 Ry     beta= 0.40
     Davidson diagonalization with overlap
     ethr =  8.06E-10,  avg # of iterations =  6.0

     total cpu time spent up to now is     7054.3 secs

     total energy              =   -8798.17970472 Ry
     Harris-Foulkes estimate   =   -8798.17970550 Ry
     estimated scf accuracy    <       0.00001045 Ry

     iteration # 14     ecut=    40.00 Ry     beta= 0.40
     Davidson diagonalization with overlap
     ethr =  8.06E-10,  avg # of iterations =  1.2

     total cpu time spent up to now is     7430.1 secs

     total energy              =   -8798.17970413 Ry
     Harris-Foulkes estimate   =   -8798.17970451 Ry
     estimated scf accuracy    <       0.00000253 Ry

     iteration # 15     ecut=    40.00 Ry     beta= 0.40
     Davidson diagonalization with overlap
     ethr =  3.19E-10,  avg # of iterations =  3.3

     total cpu time spent up to now is     7874.0 secs

     total energy              =   -8798.17970421 Ry
     Harris-Foulkes estimate   =   -8798.17970422 Ry
     estimated scf accuracy    <       0.00000028 Ry

     iteration # 16     ecut=    40.00 Ry     beta= 0.40
     Davidson diagonalization with overlap
     ethr =  3.51E-11,  avg # of iterations =  5.2

     total cpu time spent up to now is     8674.4 secs

     total energy              =   -8798.17970395 Ry
     Harris-Foulkes estimate   =   -8798.17970400 Ry
     estimated scf accuracy    <       0.00000020 Ry

     iteration # 17     ecut=    40.00 Ry     beta= 0.40
     Davidson diagonalization with overlap
     ethr =  2.49E-11,  avg # of iterations =  2.5

     total cpu time spent up to now is     9107.0 secs

     total energy              =   -8798.17970386 Ry
     Harris-Foulkes estimate   =   -8798.17970387 Ry
     estimated scf accuracy    <       0.00000010 Ry

     iteration # 18     ecut=    40.00 Ry     beta= 0.40
     Davidson diagonalization with overlap
     ethr =  1.24E-11,  avg # of iterations =  1.3

     total cpu time spent up to now is     9485.6 secs

     total energy              =   -8798.17970381 Ry
     Harris-Foulkes estimate   =   -8798.17970381 Ry
     estimated scf accuracy    <       0.00000003 Ry

     iteration # 19     ecut=    40.00 Ry     beta= 0.40
     Davidson diagonalization with overlap
     ethr =  3.52E-12,  avg # of iterations =  3.4

     total cpu time spent up to now is    10025.7 secs

     total energy              =   -8798.17970374 Ry
     Harris-Foulkes estimate   =   -8798.17970374 Ry
     estimated scf accuracy    <          3.5E-09 Ry

     iteration # 20     ecut=    40.00 Ry     beta= 0.40
     Davidson diagonalization with overlap
     ethr =  4.45E-13,  avg # of iterations =  4.1

     total cpu time spent up to now is    10649.4 secs

     total energy              =   -8798.17970365 Ry
     Harris-Foulkes estimate   =   -8798.17970365 Ry
     estimated scf accuracy    <          3.6E-09 Ry

     iteration # 21     ecut=    40.00 Ry     beta= 0.40
     Davidson diagonalization with overlap
     ethr =  4.45E-13,  avg # of iterations =  1.0

     total cpu time spent up to now is    11023.5 secs

     total energy              =   -8798.17970363 Ry
     Harris-Foulkes estimate   =   -8798.17970363 Ry
     estimated scf accuracy    <          1.0E-09 Ry

     iteration # 22     ecut=    40.00 Ry     beta= 0.40
     Davidson diagonalization with overlap
     ethr =  1.29E-13,  avg # of iterations =  2.9

     total cpu time spent up to now is    11415.4 secs

     total energy              =   -8798.17970360 Ry
     Harris-Foulkes estimate   =   -8798.17970360 Ry
     estimated scf accuracy    <          3.4E-10 Ry

     iteration # 23     ecut=    40.00 Ry     beta= 0.40
     Davidson diagonalization with overlap
     ethr =  1.00E-13,  avg # of iterations =  3.0

     total cpu time spent up to now is    11804.7 secs

     total energy              =   -8798.17970358 Ry
     Harris-Foulkes estimate   =   -8798.17970358 Ry
     estimated scf accuracy    <          1.2E-11 Ry

     iteration # 24     ecut=    40.00 Ry     beta= 0.40
     Davidson diagonalization with overlap
     ethr =  1.00E-13,  avg # of iterations =  1.0

     total cpu time spent up to now is    12179.0 secs

     total energy              =   -8798.17970357 Ry
     Harris-Foulkes estimate   =   -8798.17970357 Ry
     estimated scf accuracy    <          5.6E-11 Ry

     iteration # 25     ecut=    40.00 Ry     beta= 0.40
     Davidson diagonalization with overlap
     ethr =  1.00E-13,  avg # of iterations =  1.0

     total cpu time spent up to now is    12553.1 secs

     total energy              =   -8798.17970357 Ry
     Harris-Foulkes estimate   =   -8798.17970357 Ry
     estimated scf accuracy    <          1.9E-10 Ry

     iteration # 26     ecut=    40.00 Ry     beta= 0.40
     Davidson diagonalization with overlap
     ethr =  1.00E-13,  avg # of iterations =  1.0

     total cpu time spent up to now is    12927.2 secs

     total energy              =   -8798.17970356 Ry
     Harris-Foulkes estimate   =   -8798.17970356 Ry
     estimated scf accuracy    <          3.7E-10 Ry

     iteration # 27     ecut=    40.00 Ry     beta= 0.40
     Davidson diagonalization with overlap
     ethr =  1.00E-13,  avg # of iterations =  1.0

     total cpu time spent up to now is    13301.0 secs

     total energy              =   -8798.17970355 Ry
     Harris-Foulkes estimate   =   -8798.17970355 Ry
     estimated scf accuracy    <          1.2E-09 Ry

     iteration # 28     ecut=    40.00 Ry     beta= 0.40
     Davidson diagonalization with overlap
     ethr =  1.00E-13,  avg # of iterations =  1.0

     total cpu time spent up to now is    13674.7 secs

     total energy              =   -8798.17970354 Ry
     Harris-Foulkes estimate   =   -8798.17970354 Ry
     estimated scf accuracy    <          1.3E-09 Ry

     iteration # 29     ecut=    40.00 Ry     beta= 0.40
     Davidson diagonalization with overlap
     ethr =  1.00E-13,  avg # of iterations =  1.0

     total cpu time spent up to now is    14048.5 secs

     total energy              =   -8798.17970353 Ry
     Harris-Foulkes estimate   =   -8798.17970353 Ry
     estimated scf accuracy    <          2.4E-09 Ry

     iteration # 30     ecut=    40.00 Ry     beta= 0.40
     Davidson diagonalization with overlap
     ethr =  1.00E-13,  avg # of iterations =  1.0

     total cpu time spent up to now is    14421.8 secs

     total energy              =   -8798.17970352 Ry
     Harris-Foulkes estimate   =   -8798.17970352 Ry
     estimated scf accuracy    <          2.7E-09 Ry

     iteration # 31     ecut=    40.00 Ry     beta= 0.40
     Davidson diagonalization with overlap
     ethr =  1.00E-13,  avg # of iterations =  1.0

     total cpu time spent up to now is    14795.6 secs

     total energy              =   -8798.17970351 Ry
     Harris-Foulkes estimate   =   -8798.17970351 Ry
     estimated scf accuracy    <          2.8E-09 Ry

     iteration # 32     ecut=    40.00 Ry     beta= 0.40
     Davidson diagonalization with overlap
     ethr =  1.00E-13,  avg # of iterations =  1.0

     total cpu time spent up to now is    15169.5 secs

     total energy              =   -8798.17970350 Ry
     Harris-Foulkes estimate   =   -8798.17970350 Ry
     estimated scf accuracy    <          3.7E-09 Ry

     iteration # 33     ecut=    40.00 Ry     beta= 0.40
     Davidson diagonalization with overlap
     ethr =  1.00E-13,  avg # of iterations =  1.0

     total cpu time spent up to now is    15543.4 secs

     total energy              =   -8798.17970349 Ry
     Harris-Foulkes estimate   =   -8798.17970349 Ry
     estimated scf accuracy    <          5.2E-09 Ry

     iteration # 34     ecut=    40.00 Ry     beta= 0.40
     Davidson diagonalization with overlap
     ethr =  1.00E-13,  avg # of iterations =  1.0

     total cpu time spent up to now is    15917.8 secs

     total energy              =   -8798.17970348 Ry
     Harris-Foulkes estimate   =   -8798.17970348 Ry
     estimated scf accuracy    <          4.6E-09 Ry

     iteration # 35     ecut=    40.00 Ry     beta= 0.40
     Davidson diagonalization with overlap
     ethr =  1.00E-13,  avg # of iterations =  1.0

     total cpu time spent up to now is    16292.2 secs

     total energy              =   -8798.17970348 Ry
     Harris-Foulkes estimate   =   -8798.17970348 Ry
     estimated scf accuracy    <          4.5E-09 Ry

     iteration # 36     ecut=    40.00 Ry     beta= 0.40
     Davidson diagonalization with overlap
     ethr =  1.00E-13,  avg # of iterations =  1.0

     total cpu time spent up to now is    16666.2 secs

     total energy              =   -8798.17970347 Ry
     Harris-Foulkes estimate   =   -8798.17970347 Ry
     estimated scf accuracy    <          4.7E-09 Ry

     iteration # 37     ecut=    40.00 Ry     beta= 0.40
     Davidson diagonalization with overlap
     ethr =  1.00E-13,  avg # of iterations =  1.0

     total cpu time spent up to now is    17040.3 secs

     total energy              =   -8798.17970347 Ry
     Harris-Foulkes estimate   =   -8798.17970347 Ry
     estimated scf accuracy    <          4.5E-09 Ry

     iteration # 38     ecut=    40.00 Ry     beta= 0.40
     Davidson diagonalization with overlap
     ethr =  1.00E-13,  avg # of iterations =  1.0

     total cpu time spent up to now is    17414.3 secs

     total energy              =   -8798.17970346 Ry
     Harris-Foulkes estimate   =   -8798.17970346 Ry
     estimated scf accuracy    <          4.1E-09 Ry

     iteration # 39     ecut=    40.00 Ry     beta= 0.40
     Davidson diagonalization with overlap
     ethr =  1.00E-13,  avg # of iterations =  1.0

     total cpu time spent up to now is    17788.9 secs

     total energy              =   -8798.17970345 Ry
     Harris-Foulkes estimate   =   -8798.17970345 Ry
     estimated scf accuracy    <          3.4E-09 Ry

     iteration # 40     ecut=    40.00 Ry     beta= 0.40
     Davidson diagonalization with overlap
     ethr =  1.00E-13,  avg # of iterations =  1.0

     total cpu time spent up to now is    18163.0 secs

     total energy              =   -8798.17970345 Ry
     Harris-Foulkes estimate   =   -8798.17970345 Ry
     estimated scf accuracy    <          2.5E-10 Ry

     iteration # 41     ecut=    40.00 Ry     beta= 0.40
     Davidson diagonalization with overlap
     ethr =  1.00E-13,  avg # of iterations =  1.0

     total cpu time spent up to now is    18537.8 secs

     total energy              =   -8798.17970344 Ry
     Harris-Foulkes estimate   =   -8798.17970344 Ry
     estimated scf accuracy    <          2.2E-10 Ry

     iteration # 42     ecut=    40.00 Ry     beta= 0.40
     Davidson diagonalization with overlap
     ethr =  1.00E-13,  avg # of iterations =  1.0

     total cpu time spent up to now is    18912.1 secs

     total energy              =   -8798.17970343 Ry
     Harris-Foulkes estimate   =   -8798.17970343 Ry
     estimated scf accuracy    <          2.0E-10 Ry

     iteration # 43     ecut=    40.00 Ry     beta= 0.40
     Davidson diagonalization with overlap
     ethr =  1.00E-13,  avg # of iterations =  1.0

     total cpu time spent up to now is    19285.6 secs

     total energy              =   -8798.17970343 Ry
     Harris-Foulkes estimate   =   -8798.17970343 Ry
     estimated scf accuracy    <          1.9E-10 Ry

     iteration # 44     ecut=    40.00 Ry     beta= 0.40
     Davidson diagonalization with overlap
     ethr =  1.00E-13,  avg # of iterations =  1.0

     total cpu time spent up to now is    19658.0 secs

     End of self-consistent calculation

          k = 0.0000 0.0000 0.0000 (130387 PWs)   bands (ev):

    -4.0330  -3.9610  -3.8653  -3.7348  -3.6528  -3.5369  -3.4418  -3.4090
    -3.3232  -3.3151  -3.3039  -3.2033  -3.1413  -3.1344  -3.1033  -3.0484
    -2.9578  -2.9561  -2.9093  -2.9063  -2.8878  -2.7257  -2.7208  -2.6642
    -2.6345  -2.4187  -2.3011  -2.2775  -2.2661  -2.0076  -1.9265  -1.8507
    -1.8479  -1.8470  -1.7409  -1.6937  -1.5250  -1.4405  -1.4233  -1.4079
    -1.3437  -1.2917  -1.2208  -1.2114  -1.1547  -1.1367  -1.1345  -1.1182
    -1.0829  -0.9605  -0.9018  -0.8123  -0.8101  -0.7832  -0.7739  -0.7371
    -0.7066  -0.7016  -0.6717  -0.5619  -0.5544  -0.5340  -0.4190  -0.3095
    -0.3069  -0.2748  -0.2229  -0.1969  -0.1734  -0.1530  -0.0987  -0.0812
     0.0061   0.0151   0.0683   0.0705   0.0817   0.0819   0.1516   0.1534
     0.1559   0.2013   0.2448   0.2523   0.2531   0.2604   0.3417   0.3808
     0.3823   0.4417   0.4565   0.4668   0.4789   0.5226   0.5937   0.6114
     0.6234   0.6263   0.6431   0.6533   0.6648   0.8029   0.8153   0.8395
     0.9323   0.9449   0.9846   1.0431   1.0813   1.1066   1.1762   1.2584
     1.2630   1.2828   1.3010   1.3252   1.3652   1.3665   1.3841   1.4054
     1.4228   1.4529   1.4539   1.4564   1.4910   1.5148   1.5301   1.5575
     1.5646   1.5692   1.6067   1.6280   1.6675   1.6876   1.6956   1.7037
     1.7174   1.7471   1.7638   1.7741   1.7960   1.8200   1.8351   1.8414
     1.8644   1.8736   1.9415   1.9556   1.9646   1.9749   2.0084   2.0101
     2.0250   2.0296   2.0311   2.0846   2.0865   2.1653   2.1695   2.1728
     2.1787   2.2213   2.2239   2.2270   2.2322   2.2553   2.2619   2.2660
     2.3913   2.3921   2.4105   2.4444   2.4744   2.4828   2.4860   2.4953
     2.5434   2.5925   2.6077   2.6641   2.6669   2.6967   2.7106   2.7391
     2.7583   2.7973   2.8457   2.8536   2.8596   2.8628   2.8653   2.8675
     2.9100   2.9462   2.9616   2.9773   2.9811   3.0070   3.0204   3.0373
     3.0635   3.1107   3.1784   3.2115   3.2132   3.2323   3.2400   3.3048
     3.3218   3.3702   3.3945   3.4040   3.4185   3.4291   3.4913   3.5219
     3.5299   3.5464   3.5739   3.5995   3.6093   3.6516   3.6882   3.6944
     3.7170   3.7270   3.7667   3.7793   3.7952   3.8677   3.8758   3.8959
     3.9482   3.9737   3.9901   3.9971   3.9996   4.0076   4.0098   4.0131
     4.0160   4.0313   4.0835   4.0860   4.0978   4.1023   4.1371   4.1397
     4.1445   4.1816   4.1864   4.2086   4.2199   4.2227   4.2593   4.2715
     4.3099   4.3321   4.3397   4.3415   4.3668   4.3829   4.3873   4.3889
     4.3983   4.4103   4.4149   4.4411   4.4431   4.4767   4.4788   4.5215
     4.5295   4.5324   4.5411   4.5565   4.5743   4.6181   4.6403   4.6408
     4.6933   4.7043   4.7348   4.7470   4.7806   4.8011   4.8329   4.8413
     4.8456   4.8650   4.8714   4.9235   4.9643   4.9752   4.9784   4.9842
     5.0096   5.0211   5.0340   5.0346   5.0609   5.1249   5.2144   5.2462
     5.2507   5.2523   5.2588   5.2687   5.2995   5.3594   5.3852   5.3992
     5.4261   5.4382   5.4547   5.4673   5.5273   5.5732   5.5803   5.6058
     5.6826   5.6927   5.6995   5.7322   5.7789   5.8020   5.8437   5.8658
[...]
     atom   83 type  3   force =    -0.00000001    0.00000011   -0.00000001
     atom   84 type  3   force =    -0.00000000    0.00000011   -0.00000002
     atom   85 type  1   force =     0.00000000    0.00000008    0.00000000
     atom   86 type  1   force =    -0.00000000    0.00000003    0.00000000
     atom   87 type  3   force =     0.00000001    0.00000004    0.00000002
     atom   88 type  3   force =     0.00000001    0.00000004    0.00000001
     atom   89 type  1   force =     0.00000000    0.00000010    0.00000000
     atom   90 type  2   force =     0.00000000    0.00000006   -0.00000001
     atom   91 type  2   force =    -0.00000001    0.00000006   -0.00000001
     atom   92 type  2   force =     0.00000000    0.00000006    0.00000000
     atom   93 type  2   force =    -0.00000000    0.00000006    0.00000001
     atom   94 type  3   force =    -0.00000001    0.00000014   -0.00000001
     atom   95 type  3   force =    -0.00000001    0.00000014   -0.00000001
     atom   96 type  1   force =     0.00000000    0.00000010   -0.00000000
     atom   97 type  1   force =    -0.00000001    0.00000009   -0.00000000
     atom   98 type  3   force =     0.00000001    0.00000012    0.00000000
     atom   99 type  3   force =     0.00000000    0.00000012    0.00000002
     atom  100 type  1   force =     0.00000000    0.00000009    0.00000000
     atom  101 type  2   force =     0.00000000    0.00000007   -0.00000000
     atom  102 type  2   force =    -0.00000000    0.00000007   -0.00000001
     atom  103 type  2   force =     0.00000001    0.00000007    0.00000001
     atom  104 type  2   force =    -0.00000000    0.00000006    0.00000000
     atom  105 type  3   force =    -0.00000000    0.00000012   -0.00000001
     atom  106 type  3   force =    -0.00000001    0.00000013   -0.00000000
     atom  107 type  1   force =     0.00000001    0.00000010    0.00000000
     atom  108 type  1   force =    -0.00000000    0.00000011    0.00000000
     atom  109 type  3   force =     0.00000001    0.00000014    0.00000001
     atom  110 type  3   force =     0.00000001    0.00000014    0.00000001
     atom  111 type  1   force =    -0.00000000    0.00000007   -0.00000001
     atom  112 type  2   force =     0.00000000    0.00000003    0.00000000
     atom  113 type  2   force =    -0.00000000    0.00000003    0.00000000
     atom  114 type  2   force =     0.00000000    0.00000006    0.00000000
     atom  115 type  2   force =    -0.00000000    0.00000006    0.00000000
     atom  116 type  3   force =    -0.00000001    0.00000009   -0.00000002
     atom  117 type  3   force =    -0.00000001    0.00000010   -0.00000002
     atom  118 type  1   force =     0.00000000    0.00000008   -0.00000000
     atom  119 type  1   force =    -0.00000000    0.00000005    0.00000001
     atom  120 type  3   force =     0.00000001    0.00000007    0.00000000
     atom  121 type  3   force =    -0.00000000    0.00000006    0.00000001
     atom  122 type  1   force =     0.00000000    0.00000006    0.00000000
     atom  123 type  2   force =     0.00000000    0.00000006    0.00000000
     atom  124 type  2   force =    -0.00000000    0.00000006    0.00000000
     atom  125 type  2   force =    -0.00000000    0.00000003   -0.00000001
     atom  126 type  2   force =    -0.00000000    0.00000002   -0.00000001
     atom  127 type  3   force =     0.00000000    0.00000007    0.00000000
     atom  128 type  3   force =    -0.00000000    0.00000006    0.00000000
     atom  129 type  1   force =     0.00000000    0.00000005   -0.00000000
     atom  130 type  1   force =    -0.00000001    0.00000008    0.00000000
     atom  131 type  3   force =     0.00000001    0.00000010    0.00000001
     atom  132 type  3   force =     0.00000001    0.00000010    0.00000000
     atom  133 type  1   force =    -0.00000000    0.00000001   -0.00000000
     atom  134 type  1   force =     0.00000000   -0.00000004   -0.00000000
     atom  135 type  1   force =    -0.00000000   -0.00000005   -0.00000000
     atom  136 type  1   force =     0.00000000    0.00000001   -0.00000000
     atom  137 type  1   force =    -0.00000000    0.00000001   -0.00000000
     atom  138 type  1   force =     0.00000000   -0.00000005   -0.00000000
     atom  139 type  1   force =    -0.00000000   -0.00000005    0.00000000
     atom  140 type  1   force =     0.00000000    0.00000001    0.00000000
     atom  141 type  1   force =    -0.00000000   -0.00000005    0.00000000
     atom  142 type  1   force =     0.00000000   -0.00000004   -0.00000000
     atom  143 type  1   force =     0.00000000    0.00000001    0.00000000
     atom  144 type  1   force =    -0.00000000    0.00000001   -0.00000000
     atom  145 type  1   force =    -0.00000000   -0.00000005   -0.00000000
     atom  146 type  1   force =    -0.00000000    0.00000001   -0.00000000
     atom  147 type  1   force =     0.00000000    0.00000001    0.00000000
     atom  148 type  1   force =    -0.00000000   -0.00000005   -0.00000000
     atom  149 type  1   force =     0.00000000   -0.00000005    0.00000000
     atom  150 type  1   force =     0.00000000    0.00000000    0.00000000
     atom  151 type  1   force =     0.00000000    0.00000001    0.00000000
     atom  152 type  1   force =     0.00000000   -0.00000005    0.00000000
     atom  153 type  1   force =     0.00000000    0.00000001    0.00000000
     atom  154 type  1   force =     0.00000000   -0.00000005    0.00000000
     atom  155 type  1   force =     0.00000000    0.00000007   -0.00000001
     atom  156 type  1   force =    -0.00000000    0.00000006   -0.00000000
     atom  157 type  1   force =    -0.00000000    0.00000006   -0.00000001
     atom  158 type  1   force =    -0.00000001    0.00000007   -0.00000001
     atom  159 type  1   force =    -0.00000000    0.00000007   -0.00000000
     atom  160 type  1   force =    -0.00000000    0.00000005   -0.00000001
     atom  161 type  1   force =     0.00000000    0.00000005    0.00000000
     atom  162 type  1   force =     0.00000000    0.00000008    0.00000000
     atom  163 type  1   force =     0.00000000    0.00000006    0.00000001
     atom  164 type  1   force =    -0.00000000    0.00000007    0.00000000
     atom  165 type  1   force =     0.00000001    0.00000007    0.00000000
     atom  166 type  1   force =    -0.00000001    0.00000007    0.00000000
     atom  167 type  1   force =    -0.00000000    0.00000006   -0.00000001
     atom  168 type  1   force =    -0.00000000    0.00000007   -0.00000001
     atom  169 type  1   force =     0.00000000    0.00000008    0.00000000
     atom  170 type  1   force =    -0.00000000    0.00000005   -0.00000000
     atom  171 type  1   force =     0.00000000    0.00000005    0.00000000
     atom  172 type  1   force =    -0.00000000    0.00000008    0.00000001
     atom  173 type  1   force =     0.00000000    0.00000007    0.00000001
     atom  174 type  1   force =     0.00000000    0.00000005    0.00000001
     atom  175 type  1   force =     0.00000000    0.00000007    0.00000001
     atom  176 type  1   force =     0.00000000    0.00000006    0.00000001
     atom  177 type  1   force =    -0.00000000   -0.00000003   -0.00000001
     atom  178 type  1   force =    -0.00000000    0.00000003   -0.00000001
     atom  179 type  1   force =    -0.00000000    0.00000003   -0.00000000
     atom  180 type  1   force =     0.00000000   -0.00000003    0.00000000
     atom  181 type  1   force =     0.00000000   -0.00000002    0.00000004
     atom  182 type  1   force =     0.00000001    0.00000005    0.00000001
     atom  183 type  1   force =    -0.00000000    0.00000008    0.00000002
     atom  184 type  1   force =    -0.00000002    0.00000000   -0.00000001
     atom  185 type  1   force =     0.00000000    0.00000006   -0.00000001
     atom  186 type  1   force =     0.00000000    0.00000003   -0.00000000
     atom  187 type  1   force =    -0.00000001   -0.00000002   -0.00000002
     atom  188 type  1   force =    -0.00000000   -0.00000003   -0.00000002
     atom  189 type  1   force =    -0.00000001    0.00000002   -0.00000001
     atom  190 type  1   force =     0.00000001   -0.00000003    0.00000002
     atom  191 type  1   force =     0.00000002    0.00000000    0.00000004
     atom  192 type  1   force =     0.00000001    0.00000006    0.00000001
     atom  193 type  1   force =     0.00000001    0.00000008   -0.00000000
     atom  194 type  1   force =     0.00000001    0.00000000    0.00000001
     atom  195 type  1   force =     0.00000000   -0.00000000   -0.00000003
     atom  196 type  1   force =    -0.00000001    0.00000007   -0.00000000
     atom  197 type  1   force =    -0.00000001   -0.00000001   -0.00000002
     atom  198 type  1   force =    -0.00000000    0.00000004   -0.00000000
     atom  199 type  1   force =    -0.00000000   -0.00000006   -0.00000001
     atom  200 type  1   force =    -0.00000001   -0.00000008   -0.00000002
     atom  201 type  1   force =     0.00000000   -0.00000007    0.00000001
     atom  202 type  1   force =     0.00000000   -0.00000006    0.00000000
     atom  203 type  1   force =     0.00000001   -0.00000007    0.00000003
     atom  204 type  1   force =     0.00000001   -0.00000008    0.00000004
     atom  205 type  1   force =    -0.00000000   -0.00000009    0.00000004
     atom  206 type  1   force =    -0.00000000   -0.00000010   -0.00000000
     atom  207 type  1   force =    -0.00000001   -0.00000008   -0.00000004
     atom  208 type  1   force =    -0.00000000   -0.00000008   -0.00000002
     atom  209 type  1   force =    -0.00000001   -0.00000007   -0.00000002
     atom  210 type  1   force =    -0.00000001   -0.00000006   -0.00000001
     atom  211 type  1   force =    -0.00000000   -0.00000007   -0.00000001
     atom  212 type  1   force =     0.00000001   -0.00000006    0.00000002
     atom  213 type  1   force =     0.00000001   -0.00000009    0.00000003
     atom  214 type  1   force =     0.00000002   -0.00000008    0.00000004
     atom  215 type  1   force =     0.00000002   -0.00000010   -0.00000001
     atom  216 type  1   force =     0.00000000   -0.00000009    0.00000001
     atom  217 type  1   force =    -0.00000000   -0.00000009   -0.00000002
     atom  218 type  1   force =    -0.00000001   -0.00000008   -0.00000002
     atom  219 type  1   force =    -0.00000001   -0.00000008   -0.00000002
     atom  220 type  1   force =    -0.00000001   -0.00000008   -0.00000002
     atom  221 type  1   force =     0.00000000    0.00000004   -0.00000000
     atom  222 type  1   force =    -0.00000000   -0.00000001   -0.00000001
     atom  223 type  1   force =     0.00000000   -0.00000001    0.00000000
     atom  224 type  1   force =     0.00000000    0.00000004   -0.00000000
     atom  225 type  1   force =     0.00000000    0.00000004    0.00000000
     atom  226 type  1   force =     0.00000000   -0.00000002    0.00000001
     atom  227 type  1   force =     0.00000000   -0.00000003    0.00000001
     atom  228 type  1   force =    -0.00000000    0.00000003    0.00000000
     atom  229 type  1   force =    -0.00000000   -0.00000003   -0.00000001
     atom  230 type  1   force =    -0.00000000   -0.00000002   -0.00000001
     atom  231 type  1   force =    -0.00000000    0.00000004   -0.00000000
     atom  232 type  1   force =    -0.00000000    0.00000004   -0.00000000
     atom  233 type  1   force =    -0.00000000   -0.00000001   -0.00000000
     atom  234 type  1   force =    -0.00000000    0.00000004    0.00000000
     atom  235 type  1   force =     0.00000000    0.00000003    0.00000000
     atom  236 type  1   force =     0.00000000   -0.00000002    0.00000001
     atom  237 type  1   force =     0.00000000   -0.00000004    0.00000000
     atom  238 type  1   force =     0.00000000    0.00000003    0.00000000
     atom  239 type  1   force =     0.00000000    0.00000004    0.00000000
     atom  240 type  1   force =    -0.00000000   -0.00000003   -0.00000000
     atom  241 type  1   force =     0.00000000    0.00000004   -0.00000000
     atom  242 type  1   force =    -0.00000000   -0.00000002   -0.00000001
     atom  243 type  1   force =     0.00000000   -0.00000001    0.00000000
     atom  244 type  1   force =    -0.00000000    0.00000002   -0.00000000
     atom  245 type  1   force =     0.00000000    0.00000002   -0.00000000
     atom  246 type  1   force =     0.00000000   -0.00000001    0.00000001
     atom  247 type  1   force =    -0.00000000   -0.00000002   -0.00000000
     atom  248 type  1   force =    -0.00000000    0.00000001   -0.00000001
     atom  249 type  1   force =    -0.00000000    0.00000000   -0.00000000
     atom  250 type  1   force =    -0.00000000   -0.00000003    0.00000001
     atom  251 type  1   force =     0.00000000    0.00000001    0.00000001
     atom  252 type  1   force =     0.00000000    0.00000002   -0.00000000
     atom  253 type  1   force =    -0.00000001   -0.00000001   -0.00000001
     atom  254 type  1   force =    -0.00000000   -0.00000001   -0.00000001
     atom  255 type  1   force =    -0.00000001    0.00000003   -0.00000000
     atom  256 type  1   force =     0.00000000   -0.00000002    0.00000001
     atom  257 type  1   force =     0.00000000   -0.00000003   -0.00000000
     atom  258 type  1   force =    -0.00000000    0.00000001   -0.00000001
     atom  259 type  1   force =     0.00000000   -0.00000000    0.00000001
     atom  260 type  1   force =     0.00000000   -0.00000002    0.00000000
     atom  261 type  1   force =     0.00000000   -0.00000002    0.00000000
     atom  262 type  1   force =     0.00000001    0.00000001    0.00000001
     atom  263 type  1   force =    -0.00000000   -0.00000002   -0.00000001
     atom  264 type  1   force =    -0.00000000    0.00000002    0.00000000

     Total force =     0.012303     Total SCF correction =     0.000001


     Computing stress (Cartesian axis) and pressure

          total   stress  (Ry/bohr**3)                   (kbar)     P=    7.62
   0.00010750   0.00000055   0.00003478         15.81      0.08      5.12
   0.00000055  -0.00002408   0.00000012          0.08     -3.54      0.02
   0.00003478   0.00000012   0.00007202          5.12      0.02     10.59

     kinetic stress (kbar)   1493.76      0.04      8.04
                                0.04   1484.03      0.01
                                8.04      0.01   1481.44

     local   stress (kbar)    -72.01     -0.06     68.72
                               -0.06    946.24     -0.31
                               68.72     -0.31    -86.16

     nonloc. stress (kbar)   1112.71      0.05      2.79
                                0.05   1102.97      0.00
                                2.79      0.00   1113.52

     hartree stress (kbar)    286.93     -0.00    -24.31
                               -0.00   -168.48      0.13
                              -24.31      0.13    274.72

     exc-cor stress (kbar)   1025.51      0.00      0.08
                                0.00   1025.24      0.00
                                0.08      0.00   1025.72

     corecor stress (kbar)  -1797.76     -0.01     -0.52
                               -0.01  -1796.33     -0.00
                               -0.52     -0.00  -1797.73

     ewald   stress (kbar)  -2033.33      0.06    -49.67
                                0.06  -2597.20      0.19
                              -49.67      0.19  -2000.92

     hubbard stress (kbar)      0.00      0.00      0.00
                                0.00      0.00      0.00
                                0.00      0.00      0.00

     london  stress (kbar)      0.00      0.00      0.00
                                0.00      0.00      0.00
                                0.00      0.00      0.00

     DFT-D3  stress (kbar)      0.00      0.00      0.00
                                0.00      0.00      0.00
                                0.00      0.00      0.00

     XDM     stress (kbar)      0.00      0.00      0.00
                                0.00      0.00      0.00
                                0.00      0.00      0.00

     dft-nl  stress (kbar)      0.00      0.00      0.00
                                0.00      0.00      0.00
                                0.00      0.00      0.00

     TS-vdW  stress (kbar)      0.00      0.00      0.00
                                0.00      0.00      0.00
                                0.00      0.00      0.00



     Writing output data file aiida.save/
 
     init_run     :    338.72s CPU    342.13s WALL (       1 calls)
     electrons    :  19149.33s CPU  19313.83s WALL (       1 calls)
     forces       :    154.17s CPU    155.32s WALL (       1 calls)
     stress       :   1933.20s CPU   1935.43s WALL (       1 calls)

     Called by init_run:
     wfcinit      :    305.23s CPU    308.18s WALL (       1 calls)
     wfcinit:atom :      0.57s CPU      1.01s WALL (       3 calls)
     wfcinit:wfcr :    300.90s CPU    302.50s WALL (       3 calls)
     potinit      :     10.55s CPU     10.75s WALL (       1 calls)
     hinit0       :     16.97s CPU     17.08s WALL (       1 calls)

     Called by electrons:
     c_bands      :  16384.31s CPU  16518.58s WALL (      44 calls)
     sum_band     :   2598.44s CPU   2610.43s WALL (      44 calls)
     v_of_rho     :     78.79s CPU     86.04s WALL (      45 calls)
     v_h          :      8.15s CPU      8.16s WALL (      45 calls)
     v_xc         :     73.39s CPU     80.74s WALL (      47 calls)
     newd         :     15.88s CPU     20.63s WALL (      45 calls)
     PAW_pot      :      8.94s CPU      9.56s WALL (      45 calls)
     mix_rho      :     51.16s CPU     55.28s WALL (      44 calls)

     Called by c_bands:
     init_us_2    :    219.49s CPU    220.18s WALL (     273 calls)
     cegterg      :  13913.29s CPU  14040.65s WALL (     132 calls)

     Called by sum_band:
     sum_band:bec :      3.69s CPU      3.69s WALL (     132 calls)
     addusdens    :     11.80s CPU     17.06s WALL (      44 calls)

     Called by *egterg:
     h_psi        :   9497.92s CPU   9553.74s WALL (     455 calls)
     s_psi        :   2475.77s CPU   2480.55s WALL (     455 calls)
     g_psi        :     11.13s CPU     11.13s WALL (     320 calls)
     cdiaghg      :    549.70s CPU    559.94s WALL (     452 calls)
     cegterg:over :    708.66s CPU    713.38s WALL (     320 calls)
     cegterg:upda :    404.21s CPU    421.74s WALL (     320 calls)
     cegterg:last :    247.79s CPU    248.03s WALL (     132 calls)
     cdiaghg:chol :     25.29s CPU     25.47s WALL (     452 calls)
     cdiaghg:inve :     11.30s CPU     11.31s WALL (     452 calls)
     cdiaghg:para :    127.53s CPU    130.01s WALL (     904 calls)

     Called by h_psi:
     h_psi:pot    :   9484.99s CPU   9520.98s WALL (     455 calls)
     h_psi:calbec :   2494.01s CPU   2494.56s WALL (     455 calls)
     vloc_psi     :   4509.76s CPU   4539.71s WALL (     455 calls)
     add_vuspsi   :   2481.21s CPU   2486.70s WALL (     455 calls)

     General routines
     calbec       :   3737.72s CPU   3738.87s WALL (     602 calls)
     fft          :     84.98s CPU     92.59s WALL (     609 calls)
     ffts         :     24.05s CPU     24.15s WALL (     662 calls)
     fftw         :   5054.38s CPU   5086.53s WALL (  340988 calls)
     interpolate  :      7.72s CPU      9.25s WALL (      45 calls)
 
     Parallel routines
     fft_scatt_xy :    817.98s CPU    820.65s WALL (  342259 calls)
     fft_scatt_yz :   2450.41s CPU   2476.54s WALL (  342259 calls)

     PAW routines
     PAW_pot      :      8.94s CPU      9.56s WALL (      45 calls)
 
     PWSCF        :      6h 3m CPU      6h 7m WALL

 
   This run was terminated on:   8:27:15  27Feb2020            

=------------------------------------------------------------------------------=
   JOB DONE.
=------------------------------------------------------------------------------=
