begin
comment 264 atoms, species Al168Mg48Si48
lattice     15.3332242391     0.0000000000    22.9998363586
lattice      0.0000000000    94.3829748905     0.0000000000
lattice    -11.4999181793     0.0000000000     3.8333060598
atom    -11.2773583782     0.5798899911     3.8216243930   Al  0.0 0.0   -1.56484988e-04  1.83719986e-04 -3.62449973e-05
atom     -2.9401892846     3.7343546575     3.1469348841   Mg  0.0 0.0   -5.12599961e-05 -3.74909972e-04 -1.85374986e-04
atom     -7.9364707848     3.8056719796     7.0035407000   Mg  0.0 0.0    1.79509987e-04 -3.12179977e-04 -2.36019982e-04
atom      4.3910572744    94.3569661819     8.3287796335   Mg  0.0 0.0   -1.72234987e-04 -1.90099986e-04 -1.01399992e-05
atom     -0.6587039247    94.3599626151    12.2574325301   Mg  0.0 0.0    1.47624989e-04 -8.39549937e-05  8.90099933e-05
atom     -6.6021292179    94.0297330074     3.8718892838   Si  0.0 0.0    4.04739970e-04  1.13239991e-04 -2.57479981e-04
atom      0.4243297734    94.1941000851     4.9006858821   Si  0.0 0.0    2.93499978e-05  8.41254937e-04  3.04194977e-04
atom     -3.6546616965    94.0342276573     7.6322581785   Al  0.0 0.0    1.30664990e-04 -1.02499992e-04 -3.86559971e-04
atom      0.1018676726     3.8038365260     7.7802996707   Al  0.0 0.0   -1.20934991e-04 -2.96534978e-04  2.52509981e-04
atom     -3.9664787196     3.9083744518    10.3296147458   Si  0.0 0.0    2.79099979e-05  5.42129959e-04 -2.81034979e-04
atom      3.0414211826     3.9726097979    11.4204104222   Si  0.0 0.0   -1.33554990e-04 -1.07744992e-04  3.40519974e-04
atom     -3.7021208865     4.0231151774    15.3264380365   Al  0.0 0.0    7.93999940e-06  3.95104970e-04  9.35999930e-06
atom      4.7213753377     0.0034774105    14.5339671410   Mg  0.0 0.0   -1.41459989e-04 -9.33749930e-05 -1.05279992e-04
atom     -0.3264591880    94.3024968861    18.4825944162   Mg  0.0 0.0    1.62829988e-04 -1.96149985e-04 -2.52599981e-05
atom     12.0870725860     3.7169537838    19.8209496557   Mg  0.0 0.0   -1.54479988e-04 -3.74819972e-04  2.93999978e-04
atom      7.1096183059     3.7373040987    23.6052761949   Mg  0.0 0.0    4.64349965e-05 -3.18349976e-04  2.00329985e-04
atom      1.0496638255     3.9373823579    15.4044033492   Si  0.0 0.0    1.37399990e-04 -1.14429991e-04 -3.16769976e-04
atom      8.0881610703     3.8832972911    16.4912129955   Si  0.0 0.0   -3.48849974e-05  4.88219963e-04  2.62884980e-04
atom      4.0078123598     3.7523332569    19.0329734100   Al  0.0 0.0    1.63189988e-04 -2.84964979e-04 -2.68174980e-04
atom      7.7490140331    94.0219489152    19.1752044754   Al  0.0 0.0   -1.29279990e-04 -5.63599958e-05  3.27304975e-04
atom      3.6958681818    94.0965805578    21.9126258979   Si  0.0 0.0   -3.05449977e-05  8.15274939e-04 -3.07404977e-04
atom     10.8904204426    93.7788010749    22.8505896589   Si  0.0 0.0   -2.70804980e-04  2.61529980e-04  3.36414975e-04
atom    -11.3386525759     7.5813962124     3.8129032243   Al  0.0 0.0    7.26499945e-06  1.90609986e-04 -2.21549983e-05
atom     -2.7324844947    11.8235965446     2.9262188293   Mg  0.0 0.0   -5.96649955e-05 -1.52849989e-05 -3.96614970e-04
atom     -8.0102123430    11.8635342449     6.9375555916   Mg  0.0 0.0    1.77599987e-04 -2.32399983e-05 -5.76159957e-04
atom      4.4752200071     7.9235728536     8.3389547910   Mg  0.0 0.0   -1.75579987e-04 -2.17174984e-04  4.72274965e-04
atom     -0.7789454825     7.9380574570    12.3260104929   Mg  0.0 0.0    7.41649944e-05 -1.65014988e-04  3.93054970e-04
atom     -6.6061650043     7.8250333228     3.8815281793   Si  0.0 0.0    1.66139988e-04 -2.17199984e-05 -3.04369977e-04
atom      0.4604058343     7.8495742214     4.9866398406   Si  0.0 0.0   -2.48154981e-04  2.94509978e-04  5.19399961e-04
atom     -3.6357681347     7.8906590802     7.4889020685   Al  0.0 0.0    1.27034990e-04 -1.53934988e-04 -4.03079970e-04
atom      0.1022657227    11.8902671837     7.8021647877   Al  0.0 0.0   -1.70339987e-04  1.32399990e-05  5.68214957e-04
atom     -4.0000476172    11.9215694068    10.3027325381   Si  0.0 0.0    3.84884971e-04  2.22949983e-05 -5.77184957e-04
atom      3.0584682339    11.9315261895    11.4203468447   Si  0.0 0.0   -3.29049975e-05 -1.01774992e-04  2.36074982e-04
atom     -3.6898863723    11.9371099488    15.3272617792   Al  0.0 0.0    6.94499948e-06  2.60404980e-04 -9.18999931e-06
atom      4.8898749501     7.9330071955    14.4993616544   Mg  0.0 0.0   -6.29849953e-05 -1.61314988e-04 -3.94019970e-04
atom     -0.3544443263     7.8987610597    18.4801618874   Mg  0.0 0.0    1.86819986e-04 -2.33854982e-04 -4.67854965e-04
atom     12.1412654580    11.8344848753    19.8704184462   Mg  0.0 0.0   -1.48324989e-04 -3.26649975e-05  5.70109957e-04
atom      6.8602868667    11.8289923358    23.8793890214   Mg  0.0 0.0    5.73299957e-05 -4.30499968e-06  4.13054969e-04
atom      1.0626640335    11.9150762134    15.4010061016   Si  0.0 0.0    2.81899979e-05 -1.16424991e-04 -2.33414982e-04
atom      8.1239717643    11.9049812188    16.5140013677   Si  0.0 0.0   -3.62994973e-04 -5.87499956e-06  5.80024956e-04
atom      4.0232008688    11.8680537729    19.0165621332   Al  0.0 0.0    1.92159986e-04  2.17699984e-05 -5.45294959e-04
atom      7.7656409204     7.8680863185    19.3204983158   Al  0.0 0.0   -1.05549992e-04 -1.72764987e-04  3.77319972e-04
atom      3.6677614170     7.8092937556    21.8194572801   Si  0.0 0.0    2.56099981e-04  2.67864980e-04 -5.06999962e-04
atom     10.7570653431     7.7730214339    22.9132438613   Si  0.0 0.0   -1.40004989e-04 -1.01849992e-04  3.59169973e-04
atom    -11.3534274242    15.8736768567     3.8221495981   Al  0.0 0.0    7.67999942e-06 -3.15249976e-05  4.39999967e-07
atom     -2.7570917351    19.9006343240     2.9609155358   Mg  0.0 0.0   -1.08959992e-04  2.62449980e-05 -3.46819974e-04
atom     -8.0135902409    19.9147208772     6.9496131947   Mg  0.0 0.0    1.64824988e-04  2.40399982e-05 -6.80444949e-04
atom      4.4705014541    15.9340699130     8.3577488403   Mg  0.0 0.0   -1.58644988e-04 -1.82149986e-05  6.48434951e-04
atom     -0.7831443589    15.9314438876    12.3416947753   Mg  0.0 0.0    7.67499942e-05  4.28899968e-05  4.23379968e-04
atom     -6.6046778447    15.8896458556     3.8875376311   Si  0.0 0.0    3.10399977e-05  6.85499948e-06 -1.68609987e-04
atom      0.4636427562    15.9041691583     4.9966463796   Si  0.0 0.0   -3.79529971e-04  2.73549979e-05  5.50934959e-04
atom     -3.6381481430    15.9157347271     7.4812257815   Al  0.0 0.0    2.52454981e-04 -1.76299987e-05 -6.61354950e-04
atom      0.0975499339    19.9274308403     7.8209920079   Al  0.0 0.0   -3.19349976e-04  1.32699990e-05  6.69419950e-04
atom     -4.0042686076    19.9355024131    10.3106216714   Si  0.0 0.0    3.82789971e-04 -5.19849961e-05 -4.59104965e-04
atom      3.0635931298    19.9519247469    11.4229120569   Si  0.0 0.0    5.33349960e-05 -1.64749988e-05  2.36909982e-04
atom     -3.6878795360    19.9386812860    15.3254152687   Al  0.0 0.0   -7.33499945e-06  7.26099945e-05 -1.15499991e-06
atom      4.9050865479    15.9318695801    14.4768303562   Mg  0.0 0.0   -7.99549940e-05  4.76399964e-05 -4.22464968e-04
atom     -0.3478930839    15.9203012471    18.4591979118   Mg  0.0 0.0    1.64264988e-04 -2.16249984e-05 -6.53144951e-04
atom     12.1375752012    19.8983261859    19.8654151767   Mg  0.0 0.0   -1.61479988e-04  3.56949973e-05  6.68184950e-04
atom      6.8795591291    19.9034566103    23.8526201475   Mg  0.0 0.0    9.45949929e-05  2.83349979e-05  3.63224973e-04
atom      1.0606461403    19.9378077870    15.3931390823   Si  0.0 0.0   -8.48999936e-05 -4.99099962e-05 -2.35099982e-04
atom      8.1274021828    19.9261178276    16.5062089827   Si  0.0 0.0   -3.85354971e-04 -5.68049957e-05  4.41649967e-04
atom      4.0257107962    19.9182065804    18.9958082396   Al  0.0 0.0    3.07439977e-04  3.59499973e-05 -6.58644950e-04
atom      7.7606763502    15.9033260659    19.3320362422   Al  0.0 0.0   -2.60399980e-04 -4.93499963e-06  6.57764951e-04
atom      3.6594963475    15.8899913852    21.8162424722   Si  0.0 0.0    3.84429971e-04  2.48999981e-05 -5.59129958e-04
atom     10.7303517539    15.8624872242    22.9229048706   Si  0.0 0.0   -6.68199950e-05 -6.88049948e-05  2.09489984e-04
atom    -11.3553347479    23.9216016890     3.8249912340   Al  0.0 0.0    1.79499987e-06 -3.85599971e-05 -3.14999976e-06
atom     -2.7619678496    27.9316669022     2.9757567258   Mg  0.0 0.0   -1.10449992e-04 -1.03069992e-04 -3.86504971e-04
atom     -8.0165728530    27.9436139358     6.9599707918   Mg  0.0 0.0    1.87004986e-04 -4.38899967e-05 -6.63154950e-04
atom      4.4708276341    23.9657714367     8.3660581376   Mg  0.0 0.0   -1.89059986e-04 -8.16499939e-06  6.75924949e-04
atom     -0.7873321784    23.9621972778    12.3533156289   Mg  0.0 0.0    1.21769991e-04  9.16999931e-06  3.60974973e-04
atom     -6.6069196411    23.9286974861     3.8928090316   Si  0.0 0.0   -8.82899934e-05  2.28699983e-05 -2.19364984e-04
atom      0.4599884345    23.9392789865     5.0070647899   Si  0.0 0.0   -4.07274969e-04  2.91349978e-05  4.20829968e-04
atom     -3.6422613280    23.9475855195     7.4958071332   Al  0.0 0.0    3.06474977e-04 -4.59449965e-05 -6.47434951e-04
atom      0.0912530014    27.9616975761     7.8353079928   Al  0.0 0.0   -2.55439981e-04 -4.41849967e-05  6.34934952e-04
atom     -4.0095704147    27.9749438012    10.3172364912   Si  0.0 0.0    4.00119970e-04 -4.79199964e-05 -5.49399959e-04
atom      3.0617327981    28.0009635668    11.4238131983   Si  0.0 0.0   -9.24699931e-05  2.18099984e-05  1.94619985e-04
atom     -3.6880536830    27.9931269541    15.3223248514   Al  0.0 0.0   -1.62999988e-06  8.50599936e-05 -2.22999983e-06
atom      4.9099184346    23.9644473670    14.4604716000   Mg  0.0 0.0   -1.38019990e-04  1.10749992e-05 -3.54994973e-04
atom     -0.3477742217    23.9519585429    18.4485666552   Mg  0.0 0.0    1.91084986e-04 -3.34499975e-06 -6.80894949e-04
atom     12.1367293446    27.9301189293    19.8560333553   Mg  0.0 0.0   -1.86324986e-04 -4.23349968e-05  6.54824951e-04
atom      6.8808417352    27.9325044661    23.8413503521   Mg  0.0 0.0    1.03944992e-04 -1.02324992e-04  3.90664971e-04
atom      1.0615915094    27.9796678827    15.3866237750   Si  0.0 0.0    5.32349960e-05 -3.15299976e-05 -1.65904988e-04
atom      8.1305230067    27.9629801822    16.4956302466   Si  0.0 0.0   -4.03644970e-04 -6.68299950e-05  5.35089960e-04
atom      4.0289919459    27.9508921725    18.9778047622   Al  0.0 0.0    2.36764982e-04 -3.40449974e-05 -6.34264952e-04
atom      7.7640155489    23.9394227268    19.3200864444   Al  0.0 0.0   -3.12374977e-04 -3.34999975e-05  6.62699950e-04
atom      3.6615418831    23.9302565160    21.8089669996   Si  0.0 0.0    4.08004969e-04  3.88849971e-05 -4.35299967e-04
atom     10.7293897994    23.9125073483    22.9222884457   Si  0.0 0.0    5.61549958e-05 -7.89999941e-07  2.31109983e-04
atom    -11.3588232154    31.9236263611     3.8259753025   Al  0.0 0.0    4.84999964e-07 -2.88374978e-04 -5.79999956e-06
atom     -2.7796119763    35.9227728370     2.9952722410   Mg  0.0 0.0   -1.01989992e-04  1.73104987e-04 -3.71784972e-04
atom     -8.0255151606    35.9571074284     6.9785160598   Mg  0.0 0.0    1.49894989e-04  2.42734982e-04 -4.69944965e-04
atom      4.4687516919    32.0275672117     8.3679488759   Mg  0.0 0.0   -1.55894988e-04 -3.10199977e-05  5.70469957e-04
atom     -0.8220731126    32.0456646732    12.3919928370   Mg  0.0 0.0    8.73649934e-05 -5.84949956e-05  3.95614970e-04
atom     -6.6056121569    31.9445184666     3.9002973504   Si  0.0 0.0    4.98649963e-05  1.05854992e-04 -2.41599982e-04
atom      0.4525968640    31.9538422389     5.0123721255   Si  0.0 0.0   -3.57839973e-04  8.40999937e-06  5.62424958e-04
atom     -3.6469301248    31.9942222172     7.5177579415   Al  0.0 0.0    1.92644986e-04 -6.59299950e-05 -5.45984959e-04
atom      0.0923476393    35.9865078562     7.8197619223   Al  0.0 0.0   -1.27714990e-04  1.73749987e-04  3.61819973e-04
atom     -4.0050011305    36.0529794703    10.3213552047   Si  0.0 0.0    2.82624979e-04 -2.89284978e-04 -5.06949962e-04
atom      3.0864008517    36.0756489803    11.4140499122   Si  0.0 0.0   -1.16959991e-04  1.25189991e-04  3.48899974e-04
atom     -3.6805985350    36.4018649154    15.3123376621   Al  0.0 0.0    9.19999931e-06 -3.96339970e-04 -1.09099992e-05
atom      4.9439379029    32.0497419232    14.4130676947   Mg  0.0 0.0   -1.03179992e-04 -4.33599967e-05 -3.78139972e-04
atom     -0.3441779490    32.0046129852    18.4391682484   Mg  0.0 0.0    1.64684988e-04 -4.42249967e-05 -5.72724957e-04
atom     12.1368454426    35.9351759697    19.8363298719   Mg  0.0 0.0   -1.50389989e-04  2.26134983e-04  4.72539964e-04
atom      6.8831498733    35.9183003011    23.8252376129   Mg  0.0 0.0    9.24349931e-05  1.73899987e-04  3.67454972e-04
atom      1.0477924369    36.0373947004    15.3825714031   Si  0.0 0.0    1.20364991e-04  3.63449973e-05 -2.92529978e-04
atom      8.1219815135    36.0187526842    16.4825498758   Si  0.0 0.0   -2.92534978e-04 -3.21324976e-04  5.08504962e-04
atom      4.0262636437    35.9681864914    18.9877311383   Al  0.0 0.0    1.37479990e-04  1.54389988e-04 -3.81124971e-04
atom      7.7665448260    31.9762850815    19.2986774266   Al  0.0 0.0   -1.92039986e-04 -6.01299955e-05  5.63019958e-04
atom      3.6656163689    31.9403859318    21.8023964076   Si  0.0 0.0    3.62214973e-04 -1.25549991e-05 -5.68449957e-04
atom     10.7219540011    31.9286075167    22.9181420898   Si  0.0 0.0   -7.83649941e-05  8.96549933e-05  2.44924982e-04
atom    -11.3737943245    39.8394510576     3.8238910676   Al  0.0 0.0    7.14499946e-06 -5.01144962e-04  1.05199992e-05
atom     -2.9548259210    43.8504726969     3.0387260512   Mg  0.0 0.0   -1.21389991e-04  5.17949961e-05 -1.56754988e-04
atom     -7.9963331075    43.9250241766     6.9822339589   Mg  0.0 0.0    1.86389986e-04  2.36259982e-04 -1.41449989e-05
atom      4.3947502954    40.1260527082     8.2979113957   Mg  0.0 0.0   -9.71299927e-05  3.96594970e-04  3.09119977e-04
atom     -0.5359690248    40.1232884709    12.0680186983   Mg  0.0 0.0   -7.65699942e-05  3.80474971e-04  2.81379979e-04
atom     -6.6222860362    39.9128940782     3.9002171876   Si  0.0 0.0    1.07994992e-04  2.03139985e-04 -4.11709969e-04
atom      0.4067022323    39.9683861417     4.9841464985   Si  0.0 0.0   -9.44999929e-06 -4.88324963e-04  2.52829981e-04
atom     -3.6686957292    40.1024461217     7.5295861129   Al  0.0 0.0    1.31789990e-04  3.07034977e-04 -3.21374976e-04
atom      0.0776197831    44.2112692405     7.6761763805   Al  0.0 0.0   -1.04374992e-04  9.55099928e-05  4.40934967e-04
atom     -3.9775246118    44.1331657159    10.4262718310   Si  0.0 0.0   -5.98899955e-05 -8.32719937e-04 -3.67454972e-04
atom      3.2212403466    44.4358718129    11.3649764076   Si  0.0 0.0   -3.11389977e-04 -2.06829984e-04  6.99549947e-05
atom     -3.6412440887    43.1587582506    15.3198398021   Al  0.0 0.0    4.86199963e-05  6.29249953e-05 -4.30999968e-05
atom      4.6766527426    40.1231474948    14.6916806995   Mg  0.0 0.0    4.98749963e-05  3.97499970e-04 -2.36769982e-04
atom     -0.2669562161    40.0560041711    18.5231982977   Mg  0.0 0.0    1.10404992e-04  3.86174971e-04 -3.08044977e-04
atom     12.0460043126    43.8802186544    19.8224810431   Mg  0.0 0.0   -1.85184986e-04  2.22664983e-04  2.78499979e-06
atom      7.0089751905    43.8745353825    23.7471506738   Mg  0.0 0.0    9.63249928e-05  6.32349952e-05  1.55669988e-04
atom      1.0116445059    44.2358101392    15.3710694118   Si  0.0 0.0    2.48654981e-04 -1.90394986e-04 -2.46749981e-05
atom      8.0717138584    44.0514106339    16.3829820487   Si  0.0 0.0    1.23769991e-04 -8.79029934e-04  3.47839974e-04
atom      3.9949337783    44.2007513176    19.1263604025   Al  0.0 0.0    1.53344988e-04  1.20484991e-04 -4.66244965e-04
atom      7.7628435123    40.0590144255    19.2792669524   Al  0.0 0.0   -1.10769992e-04  3.30439975e-04  3.08189977e-04
atom      3.6988425011    39.9488042848    21.8329191157   Si  0.0 0.0    1.10949992e-05 -5.37454960e-04 -3.07169977e-04
atom     10.7036188151    39.8816830749    22.9167516784   Si  0.0 0.0   -1.24669991e-04  2.02174985e-04  4.54564966e-04
atom     -7.6539408558    55.8381626597     3.8155707133   Al  0.0 0.0    1.51029989e-04  1.71009987e-04  1.31949990e-05
atom      3.8359293210    52.0431081155    26.7989543316   Al  0.0 0.0    1.12999992e-06 -7.71049942e-05  2.83499979e-06
atom     -7.6489127082    51.9982666582     7.6569041182   Al  0.0 0.0   -1.56199988e-05  1.44349989e-05 -1.19679991e-04
atom      0.0185701461    55.8005441544     3.8167786850   Al  0.0 0.0    5.32799960e-05 -1.32594990e-04 -1.01184992e-04
atom      3.8143848555    55.7630942676     7.6562683436   Al  0.0 0.0   -3.24699976e-05 -4.99849962e-05  2.29299983e-05
atom      0.0033723695    51.8977976897     7.6637981260   Al  0.0 0.0    7.62599943e-05 -1.03974992e-04  3.00549977e-05
atom      3.7507935767    51.9132497762    11.4397877256   Al  0.0 0.0   -3.60849973e-05  2.49499981e-05 -5.55549958e-05
atom      3.8372837972    55.7188443571    15.2926148291   Al  0.0 0.0   -6.10499954e-05 -1.57434988e-04  4.52649966e-05
atom      3.8245323706    51.9258685194    19.1429513547   Al  0.0 0.0   -6.70499950e-06 -6.32999952e-05 -3.39349974e-05
atom      7.6634719460    52.0539494541    22.9589892242   Al  0.0 0.0   -2.41749982e-05  2.07599984e-05 -1.29794990e-04
atom      3.8157586815    55.8050968532    22.9665659986   Al  0.0 0.0    5.46499959e-06 -1.57784988e-04  1.10869992e-04
atom     11.4862075623    55.8369519237    22.9535519694   Al  0.0 0.0   -1.34404990e-04  2.31994983e-04 -2.05099985e-05
atom     -3.8158222589    52.0644756697     3.8013901760   Al  0.0 0.0   -1.56999988e-06  8.73299934e-05  9.57149928e-05
atom     -3.8110871204    55.7881133793     7.6500875090   Al  0.0 0.0    1.05989992e-04 -6.58349951e-05  1.27849990e-05
atom     -0.0306802697    55.7306559430    11.4955617413   Al  0.0 0.0    1.70999987e-05 -1.14994991e-04 -7.20849946e-05
atom     -3.8865342130    51.9236101375    11.4308122471   Al  0.0 0.0    2.76299979e-05 -1.33689990e-04 -1.20499991e-06
atom      0.0180034775    51.8817264141    15.3497073860   Al  0.0 0.0    1.80149986e-04  3.38149975e-05  2.01849985e-05
atom      7.6501483222    55.6992597359    11.4777213539   Al  0.0 0.0   -2.13099984e-05 -4.59699965e-05 -6.33499952e-06
atom      0.0062140054    55.7557966812    19.1240909637   Al  0.0 0.0    2.25749983e-05 -4.10149969e-05 -2.93799978e-05
atom      7.7237516685    51.9162793802    15.3589399385   Al  0.0 0.0    3.02999977e-05 -1.15039991e-04  3.78999972e-06
atom      7.6470855473    55.7827479947    19.1260673934   Al  0.0 0.0   -7.97649940e-05 -1.31294990e-04 -1.49499989e-05
atom     11.4966315012    51.9671081755    19.1116408390   Al  0.0 0.0   -3.07149977e-05  4.63149965e-05  1.39064990e-04
atom     -7.6717757148    63.4022823890     3.8090554060   Al  0.0 0.0    1.37199990e-05 -4.55949966e-05  1.24549991e-05
atom      3.8283774247    59.6058014984    26.8079712736   Al  0.0 0.0   -6.35999952e-06 -7.17649946e-05  3.46499974e-06
atom     -7.6652742287    59.5991783859     7.6556380975   Al  0.0 0.0   -9.93699925e-05  3.04999977e-06 -7.80049941e-05
atom     -0.0010200036    63.4014973456     3.8144567257   Al  0.0 0.0    1.06104992e-04 -1.83949986e-05 -2.96749978e-05
atom      3.8294610057    63.3909186095     7.6524730458   Al  0.0 0.0    1.49924989e-04  5.76199957e-05  9.07149932e-05
atom     -0.0055616454    59.5857911847     7.6582033097   Al  0.0 0.0   -6.76099949e-05  5.10749962e-05 -4.52399966e-05
atom      3.8220362643    59.5577562901    11.4850880462   Al  0.0 0.0   -3.33299975e-05  8.15099939e-05  4.78149964e-05
atom      3.8237003352    63.3814649180    15.3030581175   Al  0.0 0.0   -1.50499989e-05  1.20349991e-05 -8.19499938e-06
atom      3.8261190428    59.5833558916    19.1239831585   Al  0.0 0.0    5.33799960e-05  6.60099950e-05  6.27249953e-05
atom      7.6556823253    59.6073743494    22.9647388377   Al  0.0 0.0    1.22604991e-04 -4.48499966e-06  5.89749956e-05
atom      3.8208006503    63.4010080756    22.9674090910   Al  0.0 0.0   -9.75899927e-05 -1.47749989e-05  2.60249980e-05
atom     11.4921866076    63.4032001158    22.9714089423   Al  0.0 0.0    1.56999988e-06 -1.75649987e-05 -2.65999980e-06
atom     -3.8311720686    59.6077364645     3.8119716764   Al  0.0 0.0   -1.40364989e-04  5.47849959e-05 -5.12099962e-05
atom     -3.8361808665    63.3973316400     7.6500543382   Al  0.0 0.0    5.14149961e-05  5.33599960e-05  4.18849969e-05
atom     -0.0085801925    63.3816971139    11.4808642917   Al  0.0 0.0    2.17899984e-05  1.84999986e-06 -2.04449985e-05
atom     -3.8482246484    59.5690095001    11.4923966896   Al  0.0 0.0   -9.94799925e-05  1.21474991e-04  7.72649942e-05
atom     -0.0093375936    59.5546437589    15.3026158396   Al  0.0 0.0    4.08849969e-05  8.04099940e-05 -5.12349961e-05
atom     -3.8424308071    63.3810115831    15.3089652926   Al  0.0 0.0    1.01299992e-05  3.68999972e-05  4.26499968e-06
atom     -0.0124556532    63.3899013702    19.1299787892   Al  0.0 0.0   -1.30584990e-04  7.22149946e-05 -1.14649991e-04
atom      7.6611693363    59.5661927423    15.2925954794   Al  0.0 0.0    1.17674991e-04  1.56559988e-04 -3.82449971e-05
atom      7.6544577682    63.3972929407    19.1315599329   Al  0.0 0.0   -2.85999979e-05  6.13499954e-05 -3.61749973e-05
atom     11.4883360251    59.5988991979    19.1219155090   Al  0.0 0.0    8.10649939e-05  1.99799985e-05  6.17499954e-05
atom     -7.6768453260    71.0163408292     3.8074742623   Al  0.0 0.0   -4.98199963e-05  7.31849945e-05  1.04649992e-05
atom      3.8249442420    67.2082390850    26.8077833055   Al  0.0 0.0   -2.04999985e-06  2.67749980e-05 -7.84499941e-06
atom     -7.6748937744    67.2063179401     7.6446143192   Al  0.0 0.0   -6.38449952e-05 -2.68049980e-05  7.92999940e-06
atom     -0.0111426405    71.0136152912     3.8074300345   Al  0.0 0.0    2.56649981e-05 -9.79999926e-07  1.20399991e-05
atom      3.8251653809    71.0086064933     7.6368191700   Al  0.0 0.0    6.31799953e-05 -5.74999957e-07 -2.09899984e-05
atom     -0.0083618178    67.2032938645     7.6447221244   Al  0.0 0.0   -5.65199958e-05  9.24499931e-06 -2.41949982e-05
atom      3.8246014765    67.1981938467    11.4767289927   Al  0.0 0.0    5.22699961e-05 -7.49749944e-05  1.67599987e-05
atom      3.8235344809    71.0074233997    15.3104192814   Al  0.0 0.0   -5.21249961e-05  1.80299986e-05  1.65149988e-05
atom      3.8241757840    67.2032441083    19.1385202824   Al  0.0 0.0    4.97899963e-05  1.20199991e-05  2.99749977e-05
atom      7.6585709533    67.2069481862    22.9721967499   Al  0.0 0.0    4.58149966e-05 -4.27099968e-05 -4.27149968e-05
atom      3.8246871679    71.0138474872    22.9768047335   Al  0.0 0.0   -2.09649984e-05 -3.46499974e-06  1.33849990e-05
atom     11.4902516415    71.0163408292    22.9770341652   Al  0.0 0.0    4.56049966e-05  6.66549950e-05  1.63349988e-05
atom     -3.8422179608    67.2072411954     3.8100892308   Al  0.0 0.0   -4.94799963e-05 -3.21449976e-05  3.52949973e-05
atom     -3.8424722706    71.0117798377     7.6381764105   Al  0.0 0.0    4.72649964e-05 -3.62949973e-05  5.50349959e-05
atom     -0.0081213292    71.0077716936    11.4716400318   Al  0.0 0.0    4.65899965e-05  2.87199978e-05 -2.06349984e-05
atom     -3.8407639720    67.2014058905    11.4764719186   Al  0.0 0.0   -1.19249991e-05 -3.68049972e-05  1.76799987e-05
atom     -0.0094398703    67.1981938467    15.3069031716   Al  0.0 0.0   -5.24449961e-05 -8.37149937e-05  1.47249989e-05
atom     -3.8421377979    71.0064586809    15.3079342321   Al  0.0 0.0   -3.41499974e-06 -3.91949971e-05 -8.79999934e-06
atom     -0.0097273510    71.0084738099    19.1451820942   Al  0.0 0.0   -5.84149956e-05 -6.36499952e-06 -1.78099987e-05
atom      7.6560637900    67.2013727196    15.3069556921   Al  0.0 0.0    1.10449992e-05 -3.13049976e-05  1.37649990e-05
atom      7.6567410282    71.0115089424    19.1456520146   Al  0.0 0.0   -5.48999959e-05 -3.08249977e-05 -5.80199956e-05
atom     11.4914485562    67.2063925745    19.1371658061   Al  0.0 0.0    6.44849952e-05 -2.87949978e-05 -3.78899972e-05
atom     -7.6800628982    78.6569774109     3.8044197801   Al  0.0 0.0    3.13549976e-05 -2.16499984e-05 -5.43749959e-05
atom      3.8216243930    74.8320027624    26.8095579458   Al  0.0 0.0    7.51499944e-06 -1.97499985e-06  6.22999953e-06
atom     -7.6801900531    74.8240970437     7.6317689085   Al  0.0 0.0   -1.36304990e-04 -4.61449965e-05 -1.33429990e-04
atom     -0.0086879978    78.6471007911     3.7948886899   Al  0.0 0.0    1.04654992e-04 -1.40654989e-04 -4.67749965e-05
atom      3.8194793448    78.6172166218     7.6238714826   Al  0.0 0.0    7.78499941e-05 -5.78999956e-06  6.29549953e-05
atom     -0.0129393947    74.8167966930     7.6327972048   Al  0.0 0.0   -3.84799971e-05 -1.58499988e-05 -3.62199973e-05
atom      3.8241591986    74.8113290317    11.4715018200   Al  0.0 0.0    1.86999986e-06  5.99799955e-05  7.54999943e-07
atom      3.8322860562    78.6089487880    15.3094904977   Al  0.0 0.0   -1.63444988e-04 -3.43849974e-05 -5.55949958e-05
atom      3.8271694530    74.8166308388    19.1496712156   Al  0.0 0.0    5.26449960e-05 -1.10149992e-05  2.18149984e-05
atom      7.6547231349    74.8318230869    22.9810201954   Al  0.0 0.0    2.46849981e-05  2.47649981e-05 -1.86999986e-05
atom      3.8121872869    78.6435100469    22.9912451091   Al  0.0 0.0   -9.65549927e-05 -1.03544992e-04  8.71699934e-05
atom     11.4837003991    78.6537902453    22.9848016720   Al  0.0 0.0   -3.58499973e-05 -3.90049971e-05  6.04599955e-05
atom     -3.8445537413    74.8322487795     3.8043700238   Al  0.0 0.0   -2.39899982e-05  1.61599988e-05 -2.46199981e-05
atom     -3.8428841420    78.6307586202     7.6271885673   Al  0.0 0.0    5.59599958e-05 -4.25399968e-05  4.11749969e-05
atom     -0.0133042741    78.6093551309    11.4662829400   Al  0.0 0.0    1.22244991e-04  4.03299970e-05  5.54299958e-05
atom     -3.8467264318    74.8138887154    11.4683561179   Al  0.0 0.0   -9.02699932e-05  4.35749967e-05  4.06749969e-05
atom     -0.0069161217    74.8119122857    15.3089569999   Al  0.0 0.0    1.14099991e-05  1.00019992e-04  1.03149992e-05
atom     -3.8412255996    78.6116135128    15.3080309804   Al  0.0 0.0   -1.15899991e-05  1.09764992e-04  9.59999928e-07
atom     -0.0029135061    78.6160473494    19.1526869985   Al  0.0 0.0   -1.09359992e-04  2.47949981e-05 -7.70299942e-05
atom      7.6629190985    74.8131617210    15.3141288879   Al  0.0 0.0    9.37799930e-05  4.13699969e-05 -5.55999958e-05
atom      7.6555772843    78.6277234877    19.1555341629   Al  0.0 0.0   -6.97399948e-05 -3.19999976e-05 -2.56199981e-05
atom     11.4924353890    74.8229747634    19.1518853697   Al  0.0 0.0    1.52374989e-04 -3.18149976e-05  9.69349927e-05
atom     -7.6581894885    86.3265362074     3.8530316571   Al  0.0 0.0    2.31829983e-04 -1.16649991e-05 -1.72399987e-05
atom     15.3080365089    82.5119937904    22.9789138465   Al  0.0 0.0   -3.22549976e-05  2.58799981e-05 -1.15649991e-05
atom     -7.6647960156    82.4587739298     7.6268623873   Al  0.0 0.0    4.72499964e-06  8.28699938e-05 -3.93599970e-05
atom      0.0492531800    86.2948746335     3.8691112254   Al  0.0 0.0    6.34699952e-05  8.64449935e-05  2.12649984e-05
atom      3.8269510782    86.2614550047     7.6101000524   Al  0.0 0.0   -9.20749931e-05 -1.04119992e-04  1.06114992e-04
atom     -0.0217766614    82.4338930300     7.6300467887   Al  0.0 0.0   -1.04279992e-04  1.55004988e-04 -8.92499933e-06
atom      3.8160516906    82.3858422932    11.4520775245   Al  0.0 0.0   -1.39144990e-04 -2.68539980e-04  7.12499946e-06
atom      3.8449683769    86.1611988825    15.2985496465   Al  0.0 0.0   -1.80949986e-05 -1.38624990e-04  1.04504992e-04
atom      3.8484761940    82.4272920314    19.1444053436   Al  0.0 0.0    1.05539992e-04  7.10849947e-05  1.32549990e-05
atom      7.6245238426    82.4771229370    22.9942194284   Al  0.0 0.0    3.38799975e-05  1.12684992e-04 -5.62199958e-05
atom      3.7710388506    86.2835495533    22.9225040562   Al  0.0 0.0    3.91599971e-05  1.24359991e-04 -2.94949978e-05
atom     11.3956732627    86.2864077747    22.9393050904   Al  0.0 0.0   -7.02299947e-05 -2.85999979e-06 -5.73699957e-05
atom     -3.8345085030    82.4926109585     3.7961906457   Al  0.0 0.0   -8.71949934e-05  1.44414989e-04  2.49949981e-05
atom     -3.8502066065    86.2919334850     7.6467593673   Al  0.0 0.0    7.23999946e-06  1.24349991e-05 -8.45799936e-05
atom     -0.0076099453    86.1735218523    11.4567684352   Al  0.0 0.0   -3.32599975e-05 -7.52449943e-05 -1.47074989e-04
atom     -3.8544607677    82.4154306892    11.4675600176   Al  0.0 0.0    9.79999926e-07  1.53369988e-04  1.29779990e-04
atom      0.0081545000    82.3833821220    15.3131144128   Al  0.0 0.0    1.27904990e-04 -1.86974986e-04 -1.07999992e-05
atom     -3.8365706240    86.1840646533    15.2965013467   Al  0.0 0.0   -1.38049990e-05  3.16699976e-05 -1.67999987e-06
atom      0.0082705980    86.2233278798    19.1533006592   Al  0.0 0.0    5.41949959e-05 -6.49799951e-05 -8.09049939e-05
atom      7.6795515143    82.4203289176    15.3146983207   Al  0.0 0.0    6.43199952e-05  1.15789991e-04 -1.26829990e-04
atom      7.6612080356    86.3231030247    19.1627377653   Al  0.0 0.0    7.00699947e-05  8.02199940e-05  9.36599930e-05
atom     11.4719910900    82.4490438146    19.1525432581   Al  0.0 0.0   -1.26249991e-05  9.21249931e-05  4.50249966e-05
atom     -7.6725248231    48.3377281932     3.7736897542   Al  0.0 0.0   -1.53049988e-05 -1.99499985e-05  1.38349990e-04
atom     15.1980364502    89.9012976251    22.9906093345   Al  0.0 0.0   -7.67899942e-05  2.48999981e-05  5.66499957e-06
atom     -7.7405057107    90.3383401258     7.6250048199   Al  0.0 0.0    9.54599928e-05 -2.87794978e-04 -1.56049988e-05
atom      0.0915543032    48.2265422767     3.8480366803   Al  0.0 0.0    9.03199932e-05 -4.74674964e-04  3.05464977e-04