 # vorlage
 
          32  atoms
           1  atom types
 
      0.00000000       8.26000000  xlo xhi
      0.00000000       8.26000000  ylo yhi
      0.00000000       8.26000000  zlo zhi
 
Atoms
 
       1    1        0.00000000       0.00000000       0.00000000
       2    1        0.00000000       0.00000000       4.13000000
       3    1        0.00000000       4.13000000       0.00000000
       4    1        0.00000000       4.13000000       4.13000000
       5    1        4.13000000       0.00000000       0.00000000
       6    1        4.13000000       0.00000000       4.13000000
       7    1        4.13000000       4.13000000       0.00000000
       8    1        4.13000000       4.13000000       4.13000000
       9    1        0.00000000       2.06500000       2.06500000
      10    1        0.00000000       2.06500000       6.19500000
      11    1        0.00000000       6.19500000       2.06500000
      12    1        0.00000000       6.19500000       6.19500000
      13    1        4.13000000       2.06500000       2.06500000
      14    1        4.13000000       2.06500000       6.19500000
      15    1        4.13000000       6.19500000       2.06500000
      16    1        4.13000000       6.19500000       6.19500000
      17    1        2.06500000       0.00000000       2.06500000
      18    1        2.06500000       0.00000000       6.19500000
      19    1        2.06500000       4.13000000       2.06500000
      20    1        2.06500000       4.13000000       6.19500000
      21    1        6.19500000       0.00000000       2.06500000
      22    1        6.19500000       0.00000000       6.19500000
      23    1        6.19500000       4.13000000       2.06500000
      24    1        6.19500000       4.13000000       6.19500000
      25    1        2.06500000       2.06500000       0.00000000
      26    1        2.06500000       2.06500000       4.13000000
      27    1        2.06500000       6.19500000       0.00000000
      28    1        2.06500000       6.19500000       4.13000000
      29    1        6.19500000       2.06500000       0.00000000
      30    1        6.19500000       2.06500000       4.13000000
      31    1        6.19500000       6.19500000       0.00000000
      32    1        6.19500000       6.19500000       4.13000000
