
     Program PWSCF v.6.3 starts on 27Feb2020 at  1:43:23 

     This program is part of the open-source Quantum ESPRESSO suite
     for quantum simulation of materials; please cite
         "P. Giannozzi et al., J. Phys.:Condens. Matter 21 395502 (2009);
         "P. Giannozzi et al., J. Phys.:Condens. Matter 29 465901 (2017);
          URL http://www.quantum-espresso.org", 
     in publications or presentations arising from this work. More details at
     http://www.quantum-espresso.org/quote

 *** WARNING: using old-style file format, will disappear from next version ***

     Parallel version (MPI & OpenMP), running on     180 processor cores
     Number of MPI processes:               180
     Threads/MPI process:                     1

     MPI processes distributed on     5 nodes
     K-points division:     npool     =      36
     R & G space division:  proc/nbgrp/npool/nimage =       5
     Reading input from aiida.in
Warning: card &IONS ignored
Warning: card   !PRESS_CONV_THR = 0.05                 ! JUST FOR VOLUME RELAXATIONS ignored
Warning: card / ignored

     Current dimensions of program PWSCF are:
     Max number of different atomic species (ntypx) = 10
     Max number of k-points (npk) =  40000
     Max angular momentum in pseudopotentials (lmaxx) =  3
               file Al.pbe-n-kjpaw_psl.1.0.0.UPF: wavefunction(s)  3S 3P renormalized
               file Mg.pbe-n-kjpaw_psl.0.3.0.UPF: wavefunction(s)  3S renormalized

     Subspace diagonalization in iterative solution of the eigenvalue problem:
     a serial algorithm will be used

 
     Parallelization info
     --------------------
     sticks:   dense  smooth     PW     G-vecs:    dense   smooth      PW
     Min        2620    1050    299               596704   150998   22811
     Max        2622    1051    300               596705   150999   22816
     Sum       13105    5251   1499              2983521   754991  114069
 


     bravais-lattice index     =            0
     lattice parameter (alat)  =      53.6663  a.u.
     unit-cell volume          =   22080.4333 (a.u.)^3
     number of atoms/cell      =          196
     number of atomic types    =            3
     number of electrons       =       588.00
     number of Kohn-Sham states=          353
     kinetic-energy cutoff     =      40.0000  Ry
     charge density cutoff     =     400.0000  Ry
     convergence threshold     =      1.0E-12
     mixing beta               =       0.4000
     number of iterations used =            8  local-TF  mixing
     Exchange-correlation      = SLA PW PBX PBC ( 1  4  3  4 0 0)

     celldm(1)=  53.666328  celldm(2)=   0.000000  celldm(3)=   0.000000
     celldm(4)=   0.000000  celldm(5)=   0.000000  celldm(6)=   0.000000

     crystal axes: (cart. coord. in units of alat)
               a(1) = (   1.000000   0.000000   0.000000 )  
               a(2) = (   0.000000   0.142857   0.000000 )  
               a(3) = (   0.000000   0.000000   1.000000 )  

     reciprocal axes: (cart. coord. in units 2 pi/alat)
               b(1) = (  1.000000  0.000000  0.000000 )  
               b(2) = (  0.000000  7.000000  0.000000 )  
               b(3) = (  0.000000  0.000000  1.000000 )  


     PseudoPot. # 1 for Al read from file:
     /users/aglensk/Dropbox/Albert/scripts/dotfiles/scripts/potentials/quantum_espresso/pseudo_SSSPefV1.1_alalloy/Al.pbe-n-kjpaw_psl.1.0.0.UPF
     MD5 check sum: cfc449ca30b5f3223ec38ddd88ac046d
     Pseudo is Projector augmented-wave + core cor, Zval =  3.0
     Generated using "atomic" code by A. Dal Corso v.5.1
     Shape of augmentation charge: PSQ
     Using radial grid of 1135 points,  6 beta functions with: 
                l(1) =   0
                l(2) =   0
                l(3) =   1
                l(4) =   1
                l(5) =   2
                l(6) =   2
     Q(r) pseudized with 0 coefficients 


     PseudoPot. # 2 for Si read from file:
     /users/aglensk/Dropbox/Albert/scripts/dotfiles/scripts/potentials/quantum_espresso/pseudo_SSSPefV1.1_alalloy/Si.pbe-n-rrkjus_psl.1.0.0.UPF
     MD5 check sum: 0b0bb1205258b0d07b9f9672cf965d36
     Pseudo is Ultrasoft + core correction, Zval =  4.0
     Generated using "atomic" code by A. Dal Corso v.5.1
     Using radial grid of 1141 points,  6 beta functions with: 
                l(1) =   0
                l(2) =   0
                l(3) =   1
                l(4) =   1
                l(5) =   2
                l(6) =   2
     Q(r) pseudized with 0 coefficients 


     PseudoPot. # 3 for Mg read from file:
     /users/aglensk/Dropbox/Albert/scripts/dotfiles/scripts/potentials/quantum_espresso/pseudo_SSSPefV1.1_alalloy/Mg.pbe-n-kjpaw_psl.0.3.0.UPF
     MD5 check sum: 24ecedc7f3e3cbe212e682f4413594e4
     Pseudo is Projector augmented-wave + core cor, Zval =  2.0
     Generated using "atomic" code by A. Dal Corso v.5.0.99 svn rev. 10869
     Shape of augmentation charge: PSQ
     Using radial grid of 1129 points,  4 beta functions with: 
                l(1) =   0
                l(2) =   0
                l(3) =   1
                l(4) =   1
     Q(r) pseudized with 0 coefficients 


     atomic species   valence    mass     pseudopotential
        Al             3.00    26.98154     Al( 1.00)
        Si             4.00    28.08500     Si( 1.00)
        Mg             2.00    24.30500     Mg( 1.00)

     No symmetry found


                                    s                        frac. trans.

      isym =  1     identity                                     

 cryst.   s( 1) = (     1          0          0      )
                  (     0          1          0      )
                  (     0          0          1      )

 cart.    s( 1) = (  1.0000000  0.0000000  0.0000000 )
                  (  0.0000000  1.0000000  0.0000000 )
                  (  0.0000000  0.0000000  1.0000000 )


   Cartesian axes

     site n.     atom                  positions (alat units)
         1           Al  tau(   1) = (   0.0677374   0.0712946   0.9958175  )
         2           Al  tau(   2) = (   0.9975194   0.1427155   0.9966796  )
         3           Al  tau(   3) = (   0.0692275   0.1427295   0.0691146  )
         4           Al  tau(   4) = (   0.9967644   0.0712942   0.0674087  )
         5           Al  tau(   5) = (   0.0662169   0.0713051   0.1375429  )
         6           Al  tau(   6) = (   0.9965930   0.1427259   0.1392841  )
         7           Al  tau(   7) = (   0.0610653   0.1427428   0.2118150  )
         8           Al  tau(   8) = (   0.9939148   0.0713063   0.2117912  )
         9           Al  tau(   9) = (   0.0665560   0.0713152   0.2859120  )
        10           Al  tau(  10) = (   0.9967402   0.1427346   0.2843894  )
        11           Al  tau(  11) = (   0.0687558   0.1427457   0.3544177  )
        12           Al  tau(  12) = (   0.9971126   0.0713086   0.3565564  )
        13           Al  tau(  13) = (   0.0666540   0.0713138   0.4285530  )
        14           Al  tau(  14) = (   0.9971828   0.1427313   0.4279692  )
        15           Al  tau(  15) = (   0.0673820   0.1427297   0.5006784  )
        16           Al  tau(  16) = (   0.9973305   0.0712977   0.4997646  )
        17           Al  tau(  17) = (   0.0679927   0.0712960   0.5717529  )
        18           Al  tau(  18) = (   0.9973930   0.1427166   0.5711244  )
        19           Al  tau(  19) = (   0.0684266   0.1427161   0.6423519  )
        20           Al  tau(  20) = (   0.9975585   0.0712843   0.6420535  )
        21           Al  tau(  21) = (   0.0687200   0.0712863   0.7128498  )
        22           Al  tau(  22) = (   0.9976891   0.1427084   0.7129197  )
        23           Al  tau(  23) = (   0.0685987   0.1427101   0.7836630  )
        24           Al  tau(  24) = (   0.9976450   0.0712807   0.7836924  )
        25           Al  tau(  25) = (   0.0684561   0.0712844   0.8543398  )
        26           Al  tau(  26) = (   0.9975650   0.1427078   0.8545672  )
        27           Al  tau(  27) = (   0.0682818   0.1427150   0.9252440  )
        28           Al  tau(  28) = (   0.9974259   0.0712851   0.9255144  )
        29           Al  tau(  29) = (   0.2108487   0.0713151   0.9921440  )
        30           Al  tau(  30) = (   0.1390838   0.1427292   0.9955921  )
        31           Al  tau(  31) = (   0.2113237   0.1427533   0.0606180  )
        32           Al  tau(  32) = (   0.1367748   0.0713085   0.0657625  )
        33           Si  tau(  33) = (   0.2087758   0.0713363   0.1197551  )
        34           Mg  tau(  34) = (   0.1476973   0.1427543   0.1489118  )
        35           Al  tau(  35) = (   0.2094411   0.0713468   0.2124775  )
        36           Si  tau(  36) = (   0.1192626   0.0713258   0.2116084  )
        37           Si  tau(  37) = (   0.2138903   0.0713528   0.3052342  )
        38           Mg  tau(  38) = (   0.1496256   0.1427638   0.2735189  )
        39           Al  tau(  39) = (   0.2069058   0.1427773   0.3612291  )
        40           Al  tau(  40) = (   0.1366540   0.0713302   0.3568226  )
        41           Al  tau(  41) = (   0.2032656   0.0713418   0.4320189  )
        42           Al  tau(  42) = (   0.1351189   0.1427533   0.4288396  )
        43           Al  tau(  43) = (   0.2095884   0.1427509   0.5037338  )
        44           Al  tau(  44) = (   0.1382867   0.0713142   0.5017928  )
        45           Al  tau(  45) = (   0.2125112   0.0713155   0.5710154  )
        46           Al  tau(  46) = (   0.1390505   0.1427299   0.5722955  )
        47           Al  tau(  47) = (   0.2108405   0.1427305   0.6430484  )
        48           Al  tau(  48) = (   0.1397592   0.0712976   0.6424495  )
        49           Al  tau(  49) = (   0.2110406   0.0712970   0.7132765  )
        50           Al  tau(  50) = (   0.1396661   0.1427171   0.7131197  )
        51           Al  tau(  51) = (   0.2111002   0.1427204   0.7835849  )
        52           Al  tau(  52) = (   0.1397639   0.0712885   0.7836432  )
        53           Al  tau(  53) = (   0.2110579   0.0712982   0.8535602  )
        54           Al  tau(  54) = (   0.1397781   0.1427163   0.8542626  )
        55           Al  tau(  55) = (   0.2112185   0.1427310   0.9238031  )
        56           Al  tau(  56) = (   0.1392990   0.0712963   0.9244491  )
        57           Al  tau(  57) = (   0.3534619   0.0713191   0.9933769  )
        58           Al  tau(  58) = (   0.2849089   0.1427484   0.9965080  )
        59           Mg  tau(  59) = (   0.3630417   0.1427715   0.0759394  )
        60           Al  tau(  60) = (   0.2826461   0.0713289   0.0641245  )
        61           Si  tau(  61) = (   0.3382309   0.0713530   0.1357538  )
        62           Mg  tau(  62) = (   0.2673499   0.1427791   0.1520897  )
        63           Mg  tau(  63) = (   0.3735217   0.1427943   0.1950351  )
        64           Si  tau(  64) = (   0.3000300   0.0713613   0.2109406  )
        65           Al  tau(  65) = (   0.3560651   0.0713753   0.2785034  )
        66           Mg  tau(  66) = (   0.2723255   0.1427917   0.2709667  )
        67           Si  tau(  67) = (   0.3495593   0.1428025   0.3336409  )
        68           Mg  tau(  68) = (   0.2917697   0.0713666   0.3676180  )
        69           Al  tau(  69) = (   0.3538130   0.1427963   0.4284073  )
        70           Si  tau(  70) = (   0.2634479   0.1427800   0.4302754  )
        71           Si  tau(  71) = (   0.3563342   0.1427688   0.5195397  )
        72           Mg  tau(  72) = (   0.2933116   0.0713441   0.4915658  )
        73           Al  tau(  73) = (   0.3554924   0.0713297   0.5786281  )
        74           Al  tau(  74) = (   0.2816328   0.1427483   0.5732077  )
        75           Al  tau(  75) = (   0.3550845   0.1427464   0.6463890  )
        76           Al  tau(  76) = (   0.2826676   0.0713112   0.6430944  )
        77           Al  tau(  77) = (   0.3550387   0.0713100   0.7145922  )
        78           Al  tau(  78) = (   0.2826771   0.1427305   0.7139387  )
        79           Al  tau(  79) = (   0.3549662   0.1427299   0.7841400  )
        80           Al  tau(  80) = (   0.2828453   0.0712992   0.7836407  )
        81           Al  tau(  81) = (   0.3547125   0.0713052   0.8534842  )
        82           Al  tau(  82) = (   0.2827612   0.1427271   0.8538180  )
        83           Al  tau(  83) = (   0.3547541   0.1427380   0.9238520  )
        84           Al  tau(  84) = (   0.2827503   0.0713085   0.9236052  )
        85           Al  tau(  85) = (   0.5011536   0.0713132   0.9943847  )
        86           Al  tau(  86) = (   0.4271467   0.1427504   0.9891666  )
        87           Mg  tau(  87) = (   0.4899494   0.1427665   0.0761150  )
        88           Si  tau(  88) = (   0.4267325   0.0713360   0.0482628  )
        89           Si  tau(  89) = (   0.5200374   0.0713502   0.1374147  )
        90           Al  tau(  90) = (   0.4297134   0.0713586   0.1394385  )
        91           Mg  tau(  91) = (   0.4919639   0.1427925   0.2000521  )
        92           Si  tau(  92) = (   0.4343156   0.0713734   0.2342120  )
        93           Mg  tau(  93) = (   0.5115419   0.0713665   0.2969501  )
        94           Al  tau(  94) = (   0.4278705   0.1428041   0.2893231  )
        95           Si  tau(  95) = (   0.4836818   0.1427966   0.3570833  )
        96           Mg  tau(  96) = (   0.4101535   0.0713705   0.3729073  )
        97           Mg  tau(  97) = (   0.5162003   0.0713575   0.4159641  )
        98           Si  tau(  98) = (   0.4452084   0.1427879   0.4321783  )
        99           Al  tau(  99) = (   0.5006251   0.1427697   0.5038579  )
       100           Mg  tau( 100) = (   0.4201395   0.0713504   0.4920077  )
       101           Al  tau( 101) = (   0.4979612   0.0713316   0.5714442  )
       102           Al  tau( 102) = (   0.4293509   0.1427585   0.5745519  )
       103           Al  tau( 103) = (   0.4998323   0.1427451   0.6442947  )
       104           Al  tau( 104) = (   0.4276810   0.0713192   0.6440195  )
       105           Al  tau( 105) = (   0.4996047   0.0713086   0.7139380  )
       106           Al  tau( 106) = (   0.4275259   0.1427362   0.7142484  )
       107           Al  tau( 107) = (   0.4994087   0.1427280   0.7840558  )
       108           Al  tau( 108) = (   0.4272148   0.0713047   0.7835550  )
       109           Al  tau( 109) = (   0.4995726   0.0713008   0.8537318  )
       110           Al  tau( 110) = (   0.4271594   0.1427318   0.8531278  )
       111           Al  tau( 111) = (   0.4997334   0.1427321   0.9245287  )
       112           Al  tau( 112) = (   0.4272702   0.0713127   0.9213665  )
       113           Al  tau( 113) = (   0.6437781   0.0713012   0.9951969  )
       114           Al  tau( 114) = (   0.5702503   0.1427376   0.9965158  )
       115           Al  tau( 115) = (   0.6448602   0.1427378   0.0656752  )
       116           Al  tau( 116) = (   0.5735495   0.0713189   0.0637210  )
       117           Al  tau( 117) = (   0.6483398   0.0713271   0.1386986  )
       118           Al  tau( 118) = (   0.5802553   0.1427683   0.1355668  )
       119           Al  tau( 119) = (   0.6469593   0.1427613   0.2107990  )
       120           Al  tau( 120) = (   0.5766915   0.0713496   0.2063843  )
       121           Mg  tau( 121) = (   0.6340485   0.0713416   0.2941893  )
       122           Si  tau( 122) = (   0.5698391   0.1427840   0.2625137  )
       123           Si  tau( 123) = (   0.6642919   0.1427601   0.3561674  )
       124           Al  tau( 124) = (   0.5742621   0.1427877   0.3554906  )
       125           Mg  tau( 125) = (   0.6357870   0.0713363   0.4189436  )
       126           Si  tau( 126) = (   0.5746503   0.1427738   0.4482487  )
       127           Al  tau( 127) = (   0.6465578   0.1427482   0.5022514  )
       128           Al  tau( 128) = (   0.5718759   0.0713369   0.5074720  )
       129           Al  tau( 129) = (   0.6439441   0.0713145   0.5724315  )
       130           Al  tau( 130) = (   0.5720912   0.1427525   0.5758910  )
       131           Al  tau( 131) = (   0.6434616   0.1427312   0.6434797  )
       132           Al  tau( 132) = (   0.5714123   0.0713156   0.6441013  )
       133           Al  tau( 133) = (   0.6427596   0.0712970   0.7135525  )
       134           Al  tau( 134) = (   0.5714193   0.1427310   0.7142347  )
       135           Al  tau( 135) = (   0.6426728   0.1427180   0.7840756  )
       136           Al  tau( 136) = (   0.5712420   0.0712984   0.7841477  )
       137           Al  tau( 137) = (   0.6427280   0.0712904   0.8544766  )
       138           Al  tau( 138) = (   0.5712886   0.1427221   0.8543629  )
       139           Al  tau( 139) = (   0.6427958   0.1427198   0.9250729  )
       140           Al  tau( 140) = (   0.5716702   0.0712992   0.9244808  )
       141           Al  tau( 141) = (   0.7854894   0.0712884   0.9963137  )
       142           Al  tau( 142) = (   0.7148606   0.1427200   0.9956720  )
       143           Al  tau( 143) = (   0.7857547   0.1427221   0.0676522  )
       144           Al  tau( 144) = (   0.7157611   0.0713034   0.0667702  )
       145           Al  tau( 145) = (   0.7861096   0.0713051   0.1394363  )
       146           Al  tau( 146) = (   0.7167100   0.1427399   0.1389140  )
       147           Al  tau( 147) = (   0.7863225   0.1427359   0.2109109  )
       148           Al  tau( 148) = (   0.7147736   0.0713223   0.2130978  )
       149           Al  tau( 149) = (   0.7867354   0.0713124   0.2831423  )
       150           Al  tau( 150) = (   0.7169855   0.1427494   0.2816820  )
       151           Al  tau( 151) = (   0.7895764   0.1427402   0.3558158  )
       152           Al  tau( 152) = (   0.7225294   0.0713229   0.3558433  )
       153           Al  tau( 153) = (   0.7867710   0.0713075   0.4284159  )
       154           Al  tau( 154) = (   0.7171815   0.1427442   0.4303372  )
       155           Al  tau( 155) = (   0.7864609   0.1427281   0.5004191  )
       156           Al  tau( 156) = (   0.7140108   0.0713132   0.4987729  )
       157           Al  tau( 157) = (   0.7854948   0.0712973   0.5711546  )
       158           Al  tau( 158) = (   0.7153162   0.1427306   0.5721529  )
       159           Al  tau( 159) = (   0.7854411   0.1427174   0.6423202  )
       160           Al  tau( 160) = (   0.7145412   0.0712970   0.6426330  )
       161           Al  tau( 161) = (   0.7851592   0.0712868   0.7132068  )
       162           Al  tau( 162) = (   0.7141909   0.1427171   0.7134558  )
       163           Al  tau( 163) = (   0.7849898   0.1427077   0.7840127  )
       164           Al  tau( 164) = (   0.7139360   0.0712849   0.7840478  )
       165           Al  tau( 165) = (   0.7849577   0.0712800   0.8546580  )
       166           Al  tau( 166) = (   0.7138094   0.1427108   0.8546945  )
       167           Al  tau( 167) = (   0.7851670   0.1427090   0.9254463  )
       168           Al  tau( 168) = (   0.7142042   0.0712883   0.9251129  )
       169           Al  tau( 169) = (   0.9266387   0.0712862   0.9966773  )
       170           Al  tau( 170) = (   0.8560441   0.1427119   0.9967857  )
       171           Al  tau( 171) = (   0.9264432   0.1427172   0.0678746  )
       172           Al  tau( 172) = (   0.8559055   0.0712917   0.0680515  )
       173           Al  tau( 173) = (   0.9260854   0.0712959   0.1393213  )
       174           Al  tau( 174) = (   0.8562586   0.1427234   0.1394821  )
       175           Al  tau( 175) = (   0.9256819   0.1427280   0.2115413  )
       176           Al  tau( 176) = (   0.8561278   0.0713032   0.2113540  )
       177           Al  tau( 177) = (   0.9264446   0.0713042   0.2841598  )
       178           Al  tau( 178) = (   0.8570019   0.1427318   0.2833204  )
       179           Al  tau( 179) = (   0.9272801   0.1427301   0.3560734  )
       180           Al  tau( 180) = (   0.8577581   0.0713055   0.3559661  )
       181           Al  tau( 181) = (   0.9270217   0.0713011   0.4279510  )
       182           Al  tau( 182) = (   0.8572440   0.1427274   0.4282568  )
       183           Al  tau( 183) = (   0.9272108   0.1427205   0.4994414  )
       184           Al  tau( 184) = (   0.8567293   0.0712955   0.4997809  )
       185           Al  tau( 185) = (   0.9268998   0.0712868   0.5707718  )
       186           Al  tau( 186) = (   0.8563562   0.1427160   0.5710524  )
       187           Al  tau( 187) = (   0.9267623   0.1427101   0.6418967  )
       188           Al  tau( 188) = (   0.8559596   0.0712868   0.6418944  )
       189           Al  tau( 189) = (   0.9267642   0.0712809   0.7129481  )
       190           Al  tau( 190) = (   0.8559781   0.1427098   0.7129865  )
       191           Al  tau( 191) = (   0.9267627   0.1427055   0.7838537  )
       192           Al  tau( 192) = (   0.8559430   0.0712802   0.7838384  )
       193           Al  tau( 193) = (   0.9267743   0.0712794   0.8547275  )
       194           Al  tau( 194) = (   0.8559565   0.1427044   0.8546951  )
       195           Al  tau( 195) = (   0.9269030   0.1427078   0.9258396  )
       196           Al  tau( 196) = (   0.8560351   0.0712795   0.9257177  )

   Crystallographic axes

     site n.     atom                  positions (cryst. coord.)
         1           Al  tau(   1) = (  0.0677374  0.4990620  0.9958175  )
         2           Al  tau(   2) = (  0.9975194  0.9990084  0.9966796  )
         3           Al  tau(   3) = (  0.0692275  0.9991063  0.0691146  )
         4           Al  tau(   4) = (  0.9967644  0.4990592  0.0674087  )
         5           Al  tau(   5) = (  0.0662169  0.4991355  0.1375429  )
         6           Al  tau(   6) = (  0.9965930  0.9990812  0.1392841  )
         7           Al  tau(   7) = (  0.0610653  0.9991994  0.2118150  )
         8           Al  tau(   8) = (  0.9939148  0.4991442  0.2117912  )
         9           Al  tau(   9) = (  0.0665560  0.4992062  0.2859120  )
        10           Al  tau(  10) = (  0.9967402  0.9991423  0.2843894  )
        11           Al  tau(  11) = (  0.0687558  0.9992199  0.3544177  )
        12           Al  tau(  12) = (  0.9971126  0.4991603  0.3565564  )
        13           Al  tau(  13) = (  0.0666540  0.4991966  0.4285530  )
        14           Al  tau(  14) = (  0.9971828  0.9991193  0.4279692  )
        15           Al  tau(  15) = (  0.0673820  0.9991082  0.5006784  )
        16           Al  tau(  16) = (  0.9973305  0.4990837  0.4997646  )
        17           Al  tau(  17) = (  0.0679927  0.4990723  0.5717529  )
        18           Al  tau(  18) = (  0.9973930  0.9990165  0.5711244  )
        19           Al  tau(  19) = (  0.0684266  0.9990126  0.6423519  )
        20           Al  tau(  20) = (  0.9975585  0.4989903  0.6420535  )
        21           Al  tau(  21) = (  0.0687200  0.4990039  0.7128498  )
        22           Al  tau(  22) = (  0.9976891  0.9989586  0.7129197  )
        23           Al  tau(  23) = (  0.0685987  0.9989709  0.7836630  )
        24           Al  tau(  24) = (  0.9976450  0.4989649  0.7836924  )
        25           Al  tau(  25) = (  0.0684561  0.4989907  0.8543398  )
        26           Al  tau(  26) = (  0.9975650  0.9989549  0.8545672  )
        27           Al  tau(  27) = (  0.0682818  0.9990050  0.9252440  )
        28           Al  tau(  28) = (  0.9974259  0.4989956  0.9255144  )
        29           Al  tau(  29) = (  0.2108487  0.4992055  0.9921440  )
        30           Al  tau(  30) = (  0.1390838  0.9991042  0.9955921  )
        31           Al  tau(  31) = (  0.2113237  0.9992735  0.0606180  )
        32           Al  tau(  32) = (  0.1367748  0.4991595  0.0657625  )
        33           Si  tau(  33) = (  0.2087758  0.4993541  0.1197551  )
        34           Mg  tau(  34) = (  0.1476973  0.9992799  0.1489118  )
        35           Al  tau(  35) = (  0.2094411  0.4994274  0.2124775  )
        36           Si  tau(  36) = (  0.1192626  0.4992804  0.2116084  )
        37           Si  tau(  37) = (  0.2138903  0.4994696  0.3052342  )
        38           Mg  tau(  38) = (  0.1496256  0.9993464  0.2735189  )
        39           Al  tau(  39) = (  0.2069058  0.9994412  0.3612291  )
        40           Al  tau(  40) = (  0.1366540  0.4993114  0.3568226  )
        41           Al  tau(  41) = (  0.2032656  0.4993924  0.4320189  )
        42           Al  tau(  42) = (  0.1351189  0.9992731  0.4288396  )
        43           Al  tau(  43) = (  0.2095884  0.9992563  0.5037338  )
        44           Al  tau(  44) = (  0.1382867  0.4991991  0.5017928  )
        45           Al  tau(  45) = (  0.2125112  0.4992083  0.5710154  )
        46           Al  tau(  46) = (  0.1390505  0.9991093  0.5722955  )
        47           Al  tau(  47) = (  0.2108405  0.9991138  0.6430484  )
        48           Al  tau(  48) = (  0.1397592  0.4990833  0.6424495  )
        49           Al  tau(  49) = (  0.2110406  0.4990790  0.7132765  )
        50           Al  tau(  50) = (  0.1396661  0.9990198  0.7131197  )
        51           Al  tau(  51) = (  0.2111002  0.9990431  0.7835849  )
        52           Al  tau(  52) = (  0.1397639  0.4990195  0.7836432  )
        53           Al  tau(  53) = (  0.2110579  0.4990875  0.8535602  )
        54           Al  tau(  54) = (  0.1397781  0.9990142  0.8542626  )
        55           Al  tau(  55) = (  0.2112185  0.9991171  0.9238031  )
        56           Al  tau(  56) = (  0.1392990  0.4990738  0.9244491  )
        57           Al  tau(  57) = (  0.3534619  0.4992338  0.9933769  )
        58           Al  tau(  58) = (  0.2849089  0.9992390  0.9965080  )
        59           Mg  tau(  59) = (  0.3630417  0.9994004  0.0759394  )
        60           Al  tau(  60) = (  0.2826461  0.4993022  0.0641245  )
        61           Si  tau(  61) = (  0.3382309  0.4994713  0.1357538  )
        62           Mg  tau(  62) = (  0.2673499  0.9994535  0.1520897  )
        63           Mg  tau(  63) = (  0.3735217  0.9995600  0.1950351  )
        64           Si  tau(  64) = (  0.3000300  0.4995293  0.2109406  )
        65           Al  tau(  65) = (  0.3560651  0.4996271  0.2785034  )
        66           Mg  tau(  66) = (  0.2723255  0.9995419  0.2709667  )
        67           Si  tau(  67) = (  0.3495593  0.9996174  0.3336409  )
        68           Mg  tau(  68) = (  0.2917697  0.4995663  0.3676180  )
        69           Al  tau(  69) = (  0.3538130  0.9995743  0.4284073  )
        70           Si  tau(  70) = (  0.2634479  0.9994599  0.4302754  )
        71           Si  tau(  71) = (  0.3563342  0.9993819  0.5195397  )
        72           Mg  tau(  72) = (  0.2933116  0.4994087  0.4915658  )
        73           Al  tau(  73) = (  0.3554924  0.4993080  0.5786281  )
        74           Al  tau(  74) = (  0.2816328  0.9992383  0.5732077  )
        75           Al  tau(  75) = (  0.3550845  0.9992250  0.6463890  )
        76           Al  tau(  76) = (  0.2826676  0.4991786  0.6430944  )
        77           Al  tau(  77) = (  0.3550387  0.4991700  0.7145922  )
        78           Al  tau(  78) = (  0.2826771  0.9991133  0.7139387  )
        79           Al  tau(  79) = (  0.3549662  0.9991090  0.7841400  )
        80           Al  tau(  80) = (  0.2828453  0.4990946  0.7836407  )
        81           Al  tau(  81) = (  0.3547125  0.4991361  0.8534842  )
        82           Al  tau(  82) = (  0.2827612  0.9990898  0.8538180  )
        83           Al  tau(  83) = (  0.3547541  0.9991661  0.9238520  )
        84           Al  tau(  84) = (  0.2827503  0.4991597  0.9236052  )
        85           Al  tau(  85) = (  0.5011536  0.4991926  0.9943847  )
        86           Al  tau(  86) = (  0.4271467  0.9992530  0.9891666  )
        87           Mg  tau(  87) = (  0.4899494  0.9993656  0.0761150  )
        88           Si  tau(  88) = (  0.4267325  0.4993520  0.0482628  )
        89           Si  tau(  89) = (  0.5200374  0.4994516  0.1374147  )
        90           Al  tau(  90) = (  0.4297134  0.4995101  0.1394385  )
        91           Mg  tau(  91) = (  0.4919639  0.9995474  0.2000521  )
        92           Si  tau(  92) = (  0.4343156  0.4996140  0.2342120  )
        93           Mg  tau(  93) = (  0.5115419  0.4995653  0.2969501  )
        94           Al  tau(  94) = (  0.4278705  0.9996286  0.2893231  )
        95           Si  tau(  95) = (  0.4836818  0.9995765  0.3570833  )
        96           Mg  tau(  96) = (  0.4101535  0.4995933  0.3729073  )
        97           Mg  tau(  97) = (  0.5162003  0.4995024  0.4159641  )
        98           Si  tau(  98) = (  0.4452084  0.9995154  0.4321783  )
        99           Al  tau(  99) = (  0.5006251  0.9993881  0.5038579  )
       100           Mg  tau( 100) = (  0.4201395  0.4994528  0.4920077  )
       101           Al  tau( 101) = (  0.4979612  0.4993212  0.5714442  )
       102           Al  tau( 102) = (  0.4293509  0.9993092  0.5745519  )
       103           Al  tau( 103) = (  0.4998323  0.9992161  0.6442947  )
       104           Al  tau( 104) = (  0.4276810  0.4992345  0.6440195  )
       105           Al  tau( 105) = (  0.4996047  0.4991603  0.7139380  )
       106           Al  tau( 106) = (  0.4275259  0.9991532  0.7142484  )
       107           Al  tau( 107) = (  0.4994087  0.9990962  0.7840558  )
       108           Al  tau( 108) = (  0.4272148  0.4991327  0.7835550  )
       109           Al  tau( 109) = (  0.4995726  0.4991059  0.8537318  )
       110           Al  tau( 110) = (  0.4271594  0.9991224  0.8531278  )
       111           Al  tau( 111) = (  0.4997334  0.9991248  0.9245287  )
       112           Al  tau( 112) = (  0.4272702  0.4991892  0.9213665  )
       113           Al  tau( 113) = (  0.6437781  0.4991087  0.9951969  )
       114           Al  tau( 114) = (  0.5702503  0.9991635  0.9965158  )
       115           Al  tau( 115) = (  0.6448602  0.9991644  0.0656752  )
       116           Al  tau( 116) = (  0.5735495  0.4992320  0.0637210  )
       117           Al  tau( 117) = (  0.6483398  0.4992895  0.1386986  )
       118           Al  tau( 118) = (  0.5802553  0.9993783  0.1355668  )
       119           Al  tau( 119) = (  0.6469593  0.9993293  0.2107990  )
       120           Al  tau( 120) = (  0.5766915  0.4994471  0.2063843  )
       121           Mg  tau( 121) = (  0.6340485  0.4993915  0.2941893  )
       122           Si  tau( 122) = (  0.5698391  0.9994878  0.2625137  )
       123           Si  tau( 123) = (  0.6642919  0.9993207  0.3561674  )
       124           Al  tau( 124) = (  0.5742621  0.9995136  0.3554906  )
       125           Mg  tau( 125) = (  0.6357870  0.4993541  0.4189436  )
       126           Si  tau( 126) = (  0.5746503  0.9994166  0.4482487  )
       127           Al  tau( 127) = (  0.6465578  0.9992377  0.5022514  )
       128           Al  tau( 128) = (  0.5718759  0.4993581  0.5074720  )
       129           Al  tau( 129) = (  0.6439441  0.4992013  0.5724315  )
       130           Al  tau( 130) = (  0.5720912  0.9992673  0.5758910  )
       131           Al  tau( 131) = (  0.6434616  0.9991186  0.6434797  )
       132           Al  tau( 132) = (  0.5714123  0.4992096  0.6441013  )
       133           Al  tau( 133) = (  0.6427596  0.4990787  0.7135525  )
       134           Al  tau( 134) = (  0.5714193  0.9991173  0.7142347  )
       135           Al  tau( 135) = (  0.6426728  0.9990259  0.7840756  )
       136           Al  tau( 136) = (  0.5712420  0.4990885  0.7841477  )
       137           Al  tau( 137) = (  0.6427280  0.4990330  0.8544766  )
       138           Al  tau( 138) = (  0.5712886  0.9990549  0.8543629  )
       139           Al  tau( 139) = (  0.6427958  0.9990388  0.9250729  )
       140           Al  tau( 140) = (  0.5716702  0.4990945  0.9244808  )
       141           Al  tau( 141) = (  0.7854894  0.4990187  0.9963137  )
       142           Al  tau( 142) = (  0.7148606  0.9990404  0.9956720  )
       143           Al  tau( 143) = (  0.7857547  0.9990546  0.0676522  )
       144           Al  tau( 144) = (  0.7157611  0.4991235  0.0667702  )
       145           Al  tau( 145) = (  0.7861096  0.4991355  0.1394363  )
       146           Al  tau( 146) = (  0.7167100  0.9991790  0.1389140  )
       147           Al  tau( 147) = (  0.7863225  0.9991513  0.2109109  )
       148           Al  tau( 148) = (  0.7147736  0.4992561  0.2130978  )
       149           Al  tau( 149) = (  0.7867354  0.4991866  0.2831423  )
       150           Al  tau( 150) = (  0.7169855  0.9992457  0.2816820  )
       151           Al  tau( 151) = (  0.7895764  0.9991815  0.3558158  )
       152           Al  tau( 152) = (  0.7225294  0.4992603  0.3558433  )
       153           Al  tau( 153) = (  0.7867710  0.4991528  0.4284159  )
       154           Al  tau( 154) = (  0.7171815  0.9992094  0.4303372  )
       155           Al  tau( 155) = (  0.7864609  0.9990970  0.5004191  )
       156           Al  tau( 156) = (  0.7140108  0.4991923  0.4987729  )
       157           Al  tau( 157) = (  0.7854948  0.4990811  0.5711546  )
       158           Al  tau( 158) = (  0.7153162  0.9991141  0.5721529  )
       159           Al  tau( 159) = (  0.7854411  0.9990221  0.6423202  )
       160           Al  tau( 160) = (  0.7145412  0.4990791  0.6426330  )
       161           Al  tau( 161) = (  0.7851592  0.4990079  0.7132068  )
       162           Al  tau( 162) = (  0.7141909  0.9990195  0.7134558  )
       163           Al  tau( 163) = (  0.7849898  0.9989542  0.7840127  )
       164           Al  tau( 164) = (  0.7139360  0.4989942  0.7840478  )
       165           Al  tau( 165) = (  0.7849577  0.4989598  0.8546580  )
       166           Al  tau( 166) = (  0.7138094  0.9989760  0.8546945  )
       167           Al  tau( 167) = (  0.7851670  0.9989633  0.9254463  )
       168           Al  tau( 168) = (  0.7142042  0.4990180  0.9251129  )
       169           Al  tau( 169) = (  0.9266387  0.4990035  0.9966773  )
       170           Al  tau( 170) = (  0.8560441  0.9989831  0.9967857  )
       171           Al  tau( 171) = (  0.9264432  0.9990203  0.0678746  )
       172           Al  tau( 172) = (  0.8559055  0.4990422  0.0680515  )
       173           Al  tau( 173) = (  0.9260854  0.4990716  0.1393213  )
       174           Al  tau( 174) = (  0.8562586  0.9990640  0.1394821  )
       175           Al  tau( 175) = (  0.9256819  0.9990957  0.2115413  )
       176           Al  tau( 176) = (  0.8561278  0.4991223  0.2113540  )
       177           Al  tau( 177) = (  0.9264446  0.4991292  0.2841598  )
       178           Al  tau( 178) = (  0.8570019  0.9991224  0.2833204  )
       179           Al  tau( 179) = (  0.9272801  0.9991108  0.3560734  )
       180           Al  tau( 180) = (  0.8577581  0.4991383  0.3559661  )
       181           Al  tau( 181) = (  0.9270217  0.4991076  0.4279510  )
       182           Al  tau( 182) = (  0.8572440  0.9990920  0.4282568  )
       183           Al  tau( 183) = (  0.9272108  0.9990434  0.4994414  )
       184           Al  tau( 184) = (  0.8567293  0.4990683  0.4997809  )
       185           Al  tau( 185) = (  0.9268998  0.4990075  0.5707718  )
       186           Al  tau( 186) = (  0.8563562  0.9990123  0.5710524  )
       187           Al  tau( 187) = (  0.9267623  0.9989709  0.6418967  )
       188           Al  tau( 188) = (  0.8559596  0.4990075  0.6418944  )
       189           Al  tau( 189) = (  0.9267642  0.4989663  0.7129481  )
       190           Al  tau( 190) = (  0.8559781  0.9989685  0.7129865  )
       191           Al  tau( 191) = (  0.9267627  0.9989385  0.7838537  )
       192           Al  tau( 192) = (  0.8559430  0.4989613  0.7838384  )
       193           Al  tau( 193) = (  0.9267743  0.4989560  0.8547275  )
       194           Al  tau( 194) = (  0.8559565  0.9989309  0.8546951  )
       195           Al  tau( 195) = (  0.9269030  0.9989547  0.9258396  )
       196           Al  tau( 196) = (  0.8560351  0.4989566  0.9257177  )

     number of k points=    91  Methfessel-Paxton smearing, width (Ry)=  0.0441
                       cart. coord. in units 2pi/alat
        k(    1) = (   0.0000000   0.0000000   0.0000000), wk =   0.0111111
        k(    2) = (   0.0000000   0.0000000   0.3333333), wk =   0.0222222
        k(    3) = (   0.0000000   0.3500000   0.0000000), wk =   0.0222222
        k(    4) = (   0.0000000   0.3500000   0.3333333), wk =   0.0222222
        k(    5) = (   0.0000000   0.3500000  -0.3333333), wk =   0.0222222
        k(    6) = (   0.0000000   0.7000000   0.0000000), wk =   0.0222222
        k(    7) = (   0.0000000   0.7000000   0.3333333), wk =   0.0222222
        k(    8) = (   0.0000000   0.7000000  -0.3333333), wk =   0.0222222
        k(    9) = (   0.0000000   1.0500000   0.0000000), wk =   0.0222222
        k(   10) = (   0.0000000   1.0500000   0.3333333), wk =   0.0222222
        k(   11) = (   0.0000000   1.0500000  -0.3333333), wk =   0.0222222
        k(   12) = (   0.0000000   1.4000001   0.0000000), wk =   0.0222222
        k(   13) = (   0.0000000   1.4000001   0.3333333), wk =   0.0222222
        k(   14) = (   0.0000000   1.4000001  -0.3333333), wk =   0.0222222
        k(   15) = (   0.0000000   1.7500001   0.0000000), wk =   0.0222222
        k(   16) = (   0.0000000   1.7500001   0.3333333), wk =   0.0222222
        k(   17) = (   0.0000000   1.7500001  -0.3333333), wk =   0.0222222
        k(   18) = (   0.0000000   2.1000001   0.0000000), wk =   0.0222222
        k(   19) = (   0.0000000   2.1000001   0.3333333), wk =   0.0222222
        k(   20) = (   0.0000000   2.1000001  -0.3333333), wk =   0.0222222
        k(   21) = (   0.0000000   2.4500001   0.0000000), wk =   0.0222222
        k(   22) = (   0.0000000   2.4500001   0.3333333), wk =   0.0222222
        k(   23) = (   0.0000000   2.4500001  -0.3333333), wk =   0.0222222
        k(   24) = (   0.0000000   2.8000001   0.0000000), wk =   0.0222222
        k(   25) = (   0.0000000   2.8000001   0.3333333), wk =   0.0222222
        k(   26) = (   0.0000000   2.8000001  -0.3333333), wk =   0.0222222
        k(   27) = (   0.0000000   3.1500001   0.0000000), wk =   0.0222222
        k(   28) = (   0.0000000   3.1500001   0.3333333), wk =   0.0222222
        k(   29) = (   0.0000000   3.1500001  -0.3333333), wk =   0.0222222
        k(   30) = (   0.0000000  -3.5000001   0.0000000), wk =   0.0111111
        k(   31) = (   0.0000000  -3.5000001   0.3333333), wk =   0.0222222
        k(   32) = (   0.3333333   0.0000000   0.0000000), wk =   0.0222222
        k(   33) = (   0.3333333   0.0000000   0.3333333), wk =   0.0222222
        k(   34) = (   0.3333333   0.0000000  -0.3333333), wk =   0.0222222
        k(   35) = (   0.3333333   0.3500000   0.0000000), wk =   0.0222222
        k(   36) = (   0.3333333   0.3500000   0.3333333), wk =   0.0222222
        k(   37) = (   0.3333333   0.3500000  -0.3333333), wk =   0.0222222
        k(   38) = (   0.3333333   0.7000000   0.0000000), wk =   0.0222222
        k(   39) = (   0.3333333   0.7000000   0.3333333), wk =   0.0222222
        k(   40) = (   0.3333333   0.7000000  -0.3333333), wk =   0.0222222
        k(   41) = (   0.3333333   1.0500000   0.0000000), wk =   0.0222222
        k(   42) = (   0.3333333   1.0500000   0.3333333), wk =   0.0222222
        k(   43) = (   0.3333333   1.0500000  -0.3333333), wk =   0.0222222
        k(   44) = (   0.3333333   1.4000001   0.0000000), wk =   0.0222222
        k(   45) = (   0.3333333   1.4000001   0.3333333), wk =   0.0222222
        k(   46) = (   0.3333333   1.4000001  -0.3333333), wk =   0.0222222
        k(   47) = (   0.3333333   1.7500001   0.0000000), wk =   0.0222222
        k(   48) = (   0.3333333   1.7500001   0.3333333), wk =   0.0222222
        k(   49) = (   0.3333333   1.7500001  -0.3333333), wk =   0.0222222
        k(   50) = (   0.3333333   2.1000001   0.0000000), wk =   0.0222222
        k(   51) = (   0.3333333   2.1000001   0.3333333), wk =   0.0222222
        k(   52) = (   0.3333333   2.1000001  -0.3333333), wk =   0.0222222
        k(   53) = (   0.3333333   2.4500001   0.0000000), wk =   0.0222222
        k(   54) = (   0.3333333   2.4500001   0.3333333), wk =   0.0222222
        k(   55) = (   0.3333333   2.4500001  -0.3333333), wk =   0.0222222
        k(   56) = (   0.3333333   2.8000001   0.0000000), wk =   0.0222222
        k(   57) = (   0.3333333   2.8000001   0.3333333), wk =   0.0222222
        k(   58) = (   0.3333333   2.8000001  -0.3333333), wk =   0.0222222
        k(   59) = (   0.3333333   3.1500001   0.0000000), wk =   0.0222222
        k(   60) = (   0.3333333   3.1500001   0.3333333), wk =   0.0222222
        k(   61) = (   0.3333333   3.1500001  -0.3333333), wk =   0.0222222
        k(   62) = (   0.3333333  -3.5000001   0.0000000), wk =   0.0222222
        k(   63) = (   0.3333333  -3.5000001   0.3333333), wk =   0.0222222
        k(   64) = (   0.3333333  -3.5000001  -0.3333333), wk =   0.0222222
        k(   65) = (   0.3333333  -3.1500001   0.0000000), wk =   0.0222222
        k(   66) = (   0.3333333  -3.1500001   0.3333333), wk =   0.0222222
        k(   67) = (   0.3333333  -3.1500001  -0.3333333), wk =   0.0222222
        k(   68) = (   0.3333333  -2.8000001   0.0000000), wk =   0.0222222
        k(   69) = (   0.3333333  -2.8000001   0.3333333), wk =   0.0222222
        k(   70) = (   0.3333333  -2.8000001  -0.3333333), wk =   0.0222222
        k(   71) = (   0.3333333  -2.4500001   0.0000000), wk =   0.0222222
        k(   72) = (   0.3333333  -2.4500001   0.3333333), wk =   0.0222222
        k(   73) = (   0.3333333  -2.4500001  -0.3333333), wk =   0.0222222
        k(   74) = (   0.3333333  -2.1000001   0.0000000), wk =   0.0222222
        k(   75) = (   0.3333333  -2.1000001   0.3333333), wk =   0.0222222
        k(   76) = (   0.3333333  -2.1000001  -0.3333333), wk =   0.0222222
        k(   77) = (   0.3333333  -1.7500001   0.0000000), wk =   0.0222222
        k(   78) = (   0.3333333  -1.7500001   0.3333333), wk =   0.0222222
        k(   79) = (   0.3333333  -1.7500001  -0.3333333), wk =   0.0222222
        k(   80) = (   0.3333333  -1.4000001   0.0000000), wk =   0.0222222
        k(   81) = (   0.3333333  -1.4000001   0.3333333), wk =   0.0222222
        k(   82) = (   0.3333333  -1.4000001  -0.3333333), wk =   0.0222222
        k(   83) = (   0.3333333  -1.0500000   0.0000000), wk =   0.0222222
        k(   84) = (   0.3333333  -1.0500000   0.3333333), wk =   0.0222222
        k(   85) = (   0.3333333  -1.0500000  -0.3333333), wk =   0.0222222
        k(   86) = (   0.3333333  -0.7000000   0.0000000), wk =   0.0222222
        k(   87) = (   0.3333333  -0.7000000   0.3333333), wk =   0.0222222
        k(   88) = (   0.3333333  -0.7000000  -0.3333333), wk =   0.0222222
        k(   89) = (   0.3333333  -0.3500000   0.0000000), wk =   0.0222222
        k(   90) = (   0.3333333  -0.3500000   0.3333333), wk =   0.0222222
        k(   91) = (   0.3333333  -0.3500000  -0.3333333), wk =   0.0222222

                       cryst. coord.
        k(    1) = (   0.0000000   0.0000000   0.0000000), wk =   0.0111111
        k(    2) = (   0.0000000   0.0000000   0.3333333), wk =   0.0222222
        k(    3) = (   0.0000000   0.0500000   0.0000000), wk =   0.0222222
        k(    4) = (   0.0000000   0.0500000   0.3333333), wk =   0.0222222
        k(    5) = (   0.0000000   0.0500000  -0.3333333), wk =   0.0222222
        k(    6) = (   0.0000000   0.1000000   0.0000000), wk =   0.0222222
        k(    7) = (   0.0000000   0.1000000   0.3333333), wk =   0.0222222
        k(    8) = (   0.0000000   0.1000000  -0.3333333), wk =   0.0222222
        k(    9) = (   0.0000000   0.1500000   0.0000000), wk =   0.0222222
        k(   10) = (   0.0000000   0.1500000   0.3333333), wk =   0.0222222
        k(   11) = (   0.0000000   0.1500000  -0.3333333), wk =   0.0222222
        k(   12) = (   0.0000000   0.2000000   0.0000000), wk =   0.0222222
        k(   13) = (   0.0000000   0.2000000   0.3333333), wk =   0.0222222
        k(   14) = (   0.0000000   0.2000000  -0.3333333), wk =   0.0222222
        k(   15) = (   0.0000000   0.2500000   0.0000000), wk =   0.0222222
        k(   16) = (   0.0000000   0.2500000   0.3333333), wk =   0.0222222
        k(   17) = (   0.0000000   0.2500000  -0.3333333), wk =   0.0222222
        k(   18) = (   0.0000000   0.3000000   0.0000000), wk =   0.0222222
        k(   19) = (   0.0000000   0.3000000   0.3333333), wk =   0.0222222
        k(   20) = (   0.0000000   0.3000000  -0.3333333), wk =   0.0222222
        k(   21) = (   0.0000000   0.3500000   0.0000000), wk =   0.0222222
        k(   22) = (   0.0000000   0.3500000   0.3333333), wk =   0.0222222
        k(   23) = (   0.0000000   0.3500000  -0.3333333), wk =   0.0222222
        k(   24) = (   0.0000000   0.4000000   0.0000000), wk =   0.0222222
        k(   25) = (   0.0000000   0.4000000   0.3333333), wk =   0.0222222
        k(   26) = (   0.0000000   0.4000000  -0.3333333), wk =   0.0222222
        k(   27) = (   0.0000000   0.4500000   0.0000000), wk =   0.0222222
        k(   28) = (   0.0000000   0.4500000   0.3333333), wk =   0.0222222
        k(   29) = (   0.0000000   0.4500000  -0.3333333), wk =   0.0222222
        k(   30) = (   0.0000000  -0.5000000   0.0000000), wk =   0.0111111
        k(   31) = (   0.0000000  -0.5000000   0.3333333), wk =   0.0222222
        k(   32) = (   0.3333333   0.0000000   0.0000000), wk =   0.0222222
        k(   33) = (   0.3333333   0.0000000   0.3333333), wk =   0.0222222
        k(   34) = (   0.3333333   0.0000000  -0.3333333), wk =   0.0222222
        k(   35) = (   0.3333333   0.0500000   0.0000000), wk =   0.0222222
        k(   36) = (   0.3333333   0.0500000   0.3333333), wk =   0.0222222
        k(   37) = (   0.3333333   0.0500000  -0.3333333), wk =   0.0222222
        k(   38) = (   0.3333333   0.1000000   0.0000000), wk =   0.0222222
        k(   39) = (   0.3333333   0.1000000   0.3333333), wk =   0.0222222
        k(   40) = (   0.3333333   0.1000000  -0.3333333), wk =   0.0222222
        k(   41) = (   0.3333333   0.1500000   0.0000000), wk =   0.0222222
        k(   42) = (   0.3333333   0.1500000   0.3333333), wk =   0.0222222
        k(   43) = (   0.3333333   0.1500000  -0.3333333), wk =   0.0222222
        k(   44) = (   0.3333333   0.2000000   0.0000000), wk =   0.0222222
        k(   45) = (   0.3333333   0.2000000   0.3333333), wk =   0.0222222
        k(   46) = (   0.3333333   0.2000000  -0.3333333), wk =   0.0222222
        k(   47) = (   0.3333333   0.2500000   0.0000000), wk =   0.0222222
        k(   48) = (   0.3333333   0.2500000   0.3333333), wk =   0.0222222
        k(   49) = (   0.3333333   0.2500000  -0.3333333), wk =   0.0222222
        k(   50) = (   0.3333333   0.3000000   0.0000000), wk =   0.0222222
        k(   51) = (   0.3333333   0.3000000   0.3333333), wk =   0.0222222
        k(   52) = (   0.3333333   0.3000000  -0.3333333), wk =   0.0222222
        k(   53) = (   0.3333333   0.3500000   0.0000000), wk =   0.0222222
        k(   54) = (   0.3333333   0.3500000   0.3333333), wk =   0.0222222
        k(   55) = (   0.3333333   0.3500000  -0.3333333), wk =   0.0222222
        k(   56) = (   0.3333333   0.4000000   0.0000000), wk =   0.0222222
        k(   57) = (   0.3333333   0.4000000   0.3333333), wk =   0.0222222
        k(   58) = (   0.3333333   0.4000000  -0.3333333), wk =   0.0222222
        k(   59) = (   0.3333333   0.4500000   0.0000000), wk =   0.0222222
        k(   60) = (   0.3333333   0.4500000   0.3333333), wk =   0.0222222
        k(   61) = (   0.3333333   0.4500000  -0.3333333), wk =   0.0222222
        k(   62) = (   0.3333333  -0.5000000   0.0000000), wk =   0.0222222
        k(   63) = (   0.3333333  -0.5000000   0.3333333), wk =   0.0222222
        k(   64) = (   0.3333333  -0.5000000  -0.3333333), wk =   0.0222222
        k(   65) = (   0.3333333  -0.4500000   0.0000000), wk =   0.0222222
        k(   66) = (   0.3333333  -0.4500000   0.3333333), wk =   0.0222222
        k(   67) = (   0.3333333  -0.4500000  -0.3333333), wk =   0.0222222
        k(   68) = (   0.3333333  -0.4000000   0.0000000), wk =   0.0222222
        k(   69) = (   0.3333333  -0.4000000   0.3333333), wk =   0.0222222
        k(   70) = (   0.3333333  -0.4000000  -0.3333333), wk =   0.0222222
        k(   71) = (   0.3333333  -0.3500000   0.0000000), wk =   0.0222222
        k(   72) = (   0.3333333  -0.3500000   0.3333333), wk =   0.0222222
        k(   73) = (   0.3333333  -0.3500000  -0.3333333), wk =   0.0222222
        k(   74) = (   0.3333333  -0.3000000   0.0000000), wk =   0.0222222
        k(   75) = (   0.3333333  -0.3000000   0.3333333), wk =   0.0222222
        k(   76) = (   0.3333333  -0.3000000  -0.3333333), wk =   0.0222222
        k(   77) = (   0.3333333  -0.2500000   0.0000000), wk =   0.0222222
        k(   78) = (   0.3333333  -0.2500000   0.3333333), wk =   0.0222222
        k(   79) = (   0.3333333  -0.2500000  -0.3333333), wk =   0.0222222
        k(   80) = (   0.3333333  -0.2000000   0.0000000), wk =   0.0222222
        k(   81) = (   0.3333333  -0.2000000   0.3333333), wk =   0.0222222
        k(   82) = (   0.3333333  -0.2000000  -0.3333333), wk =   0.0222222
        k(   83) = (   0.3333333  -0.1500000   0.0000000), wk =   0.0222222
        k(   84) = (   0.3333333  -0.1500000   0.3333333), wk =   0.0222222
        k(   85) = (   0.3333333  -0.1500000  -0.3333333), wk =   0.0222222
        k(   86) = (   0.3333333  -0.1000000   0.0000000), wk =   0.0222222
        k(   87) = (   0.3333333  -0.1000000   0.3333333), wk =   0.0222222
        k(   88) = (   0.3333333  -0.1000000  -0.3333333), wk =   0.0222222
        k(   89) = (   0.3333333  -0.0500000   0.0000000), wk =   0.0222222
        k(   90) = (   0.3333333  -0.0500000   0.3333333), wk =   0.0222222
        k(   91) = (   0.3333333  -0.0500000  -0.3333333), wk =   0.0222222

     Dense  grid:  2983521 G-vectors     FFT dimensions: ( 360,  50, 360)

     Smooth grid:   754991 G-vectors     FFT dimensions: ( 225,  32, 225)

     Dynamical RAM for                 wfc:     101.61 MB

     Dynamical RAM for     wfc (w. buffer):     406.45 MB

     Dynamical RAM for           str. fact:      27.31 MB

     Dynamical RAM for           local pot:       0.00 MB

     Dynamical RAM for          nlocal pot:     969.50 MB

     Dynamical RAM for                qrad:      41.06 MB

     Dynamical RAM for          rho,v,vnew:      56.98 MB

     Dynamical RAM for               rhoin:      18.99 MB

     Dynamical RAM for            rho*nmix:     145.68 MB

     Dynamical RAM for           G-vectors:      35.30 MB

     Dynamical RAM for          h,s,v(r/c):      91.27 MB

     Dynamical RAM for          <psi|beta>:      18.14 MB

     Dynamical RAM for                 psi:     406.45 MB

     Dynamical RAM for                hpsi:     406.45 MB

     Dynamical RAM for                spsi:     406.45 MB

     Dynamical RAM for      wfcinit/wfcrot:     465.43 MB

     Dynamical RAM for           addusdens:      97.37 MB

     Dynamical RAM for          addusforce:     200.57 MB

     Dynamical RAM for         addusstress:      55.26 MB

     Estimated static dynamical RAM per process >       1.75 GB

     Estimated max dynamical RAM per process >       3.04 GB

     Estimated total dynamical RAM >     547.72 GB

     Initial potential from superposition of free atoms

     starting charge  587.60068, renormalised to  588.00000
     Starting wfcs are  784 randomized atomic wfcs
     Checking if some PAW data can be deallocated... 
       PAW data deallocated on   32 nodes for type:  1
       PAW data deallocated on  164 nodes for type:  3

     total cpu time spent up to now is      245.6 secs

     Self-consistent Calculation

     iteration #  1     ecut=    40.00 Ry     beta= 0.40
     Davidson diagonalization with overlap
     ethr =  1.00E-02,  avg # of iterations =  3.0

     total cpu time spent up to now is      632.4 secs

     total energy              =   -7198.89240544 Ry
     Harris-Foulkes estimate   =   -7199.38308613 Ry
     estimated scf accuracy    <      21.71769751 Ry

     iteration #  2     ecut=    40.00 Ry     beta= 0.40
     Davidson diagonalization with overlap
     ethr =  3.69E-03,  avg # of iterations =  1.0

     total cpu time spent up to now is      902.5 secs

     total energy              =   -7198.45755996 Ry
     Harris-Foulkes estimate   =   -7199.27372696 Ry
     estimated scf accuracy    <      11.69921429 Ry

     iteration #  3     ecut=    40.00 Ry     beta= 0.40
     Davidson diagonalization with overlap
     ethr =  1.99E-03,  avg # of iterations =  1.2

     total cpu time spent up to now is     1175.1 secs

     total energy              =   -7198.88074604 Ry
     Harris-Foulkes estimate   =   -7198.90254117 Ry
     estimated scf accuracy    <       0.11192367 Ry

     iteration #  4     ecut=    40.00 Ry     beta= 0.40
     Davidson diagonalization with overlap
     c_bands:  2 eigenvalues not converged
     c_bands:  3 eigenvalues not converged
     ethr =  1.90E-05,  avg # of iterations = 17.0

     total cpu time spent up to now is     2005.2 secs

     total energy              =   -7199.00313103 Ry
     Harris-Foulkes estimate   =   -7199.01063550 Ry
     estimated scf accuracy    <       0.31105169 Ry

     iteration #  5     ecut=    40.00 Ry     beta= 0.40
     Davidson diagonalization with overlap
     ethr =  1.90E-05,  avg # of iterations =  4.6

     total cpu time spent up to now is     2356.3 secs

     total energy              =   -7198.99322235 Ry
     Harris-Foulkes estimate   =   -7199.00534545 Ry
     estimated scf accuracy    <       0.07360135 Ry

     iteration #  6     ecut=    40.00 Ry     beta= 0.40
     Davidson diagonalization with overlap
     ethr =  1.25E-05,  avg # of iterations = 10.4

     total cpu time spent up to now is     2767.1 secs

     total energy              =   -7198.99906959 Ry
     Harris-Foulkes estimate   =   -7199.00077881 Ry
     estimated scf accuracy    <       0.07109190 Ry

     iteration #  7     ecut=    40.00 Ry     beta= 0.40
     Davidson diagonalization with overlap
     ethr =  1.21E-05,  avg # of iterations =  1.1

     total cpu time spent up to now is     3036.0 secs

     total energy              =   -7198.99928816 Ry
     Harris-Foulkes estimate   =   -7198.99966442 Ry
     estimated scf accuracy    <       0.02798558 Ry

     iteration #  8     ecut=    40.00 Ry     beta= 0.40
     Davidson diagonalization with overlap
     ethr =  4.76E-06,  avg # of iterations =  3.6

     total cpu time spent up to now is     3362.3 secs

     total energy              =   -7198.99878422 Ry
     Harris-Foulkes estimate   =   -7198.99941337 Ry
     estimated scf accuracy    <       0.01738056 Ry

     iteration #  9     ecut=    40.00 Ry     beta= 0.40
     Davidson diagonalization with overlap
     ethr =  2.96E-06,  avg # of iterations =  8.6

     total cpu time spent up to now is     3715.3 secs

     total energy              =   -7198.99873746 Ry
     Harris-Foulkes estimate   =   -7198.99900339 Ry
     estimated scf accuracy    <       0.00291795 Ry

     iteration # 10     ecut=    40.00 Ry     beta= 0.40
     Davidson diagonalization with overlap
     ethr =  4.96E-07,  avg # of iterations =  8.6

     total cpu time spent up to now is     4085.6 secs

     total energy              =   -7198.99905626 Ry
     Harris-Foulkes estimate   =   -7198.99908928 Ry
     estimated scf accuracy    <       0.00259737 Ry

     iteration # 11     ecut=    40.00 Ry     beta= 0.40
     Davidson diagonalization with overlap
     ethr =  4.42E-07,  avg # of iterations =  1.6

     total cpu time spent up to now is     4381.5 secs

     total energy              =   -7198.99907674 Ry
     Harris-Foulkes estimate   =   -7198.99907702 Ry
     estimated scf accuracy    <       0.00187506 Ry

     iteration # 12     ecut=    40.00 Ry     beta= 0.40
     Davidson diagonalization with overlap
     ethr =  3.19E-07,  avg # of iterations =  1.2

     total cpu time spent up to now is     4670.8 secs

     total energy              =   -7198.99897975 Ry
     Harris-Foulkes estimate   =   -7198.99908595 Ry
     estimated scf accuracy    <       0.00184467 Ry

     iteration # 13     ecut=    40.00 Ry     beta= 0.40
     Davidson diagonalization with overlap
     ethr =  3.14E-07,  avg # of iterations =  1.2

     total cpu time spent up to now is     4960.6 secs

     total energy              =   -7198.99902944 Ry
     Harris-Foulkes estimate   =   -7198.99903010 Ry
     estimated scf accuracy    <       0.00002391 Ry

     iteration # 14     ecut=    40.00 Ry     beta= 0.40
     Davidson diagonalization with overlap
     ethr =  4.07E-09,  avg # of iterations =  5.0

     total cpu time spent up to now is     5505.3 secs

     total energy              =   -7198.99910251 Ry
     Harris-Foulkes estimate   =   -7198.99910261 Ry
     estimated scf accuracy    <       0.00000109 Ry

     iteration # 15     ecut=    40.00 Ry     beta= 0.40
     Davidson diagonalization with overlap
     ethr =  1.86E-10,  avg # of iterations =  3.9

     total cpu time spent up to now is     5846.3 secs

     total energy              =   -7198.99910262 Ry
     Harris-Foulkes estimate   =   -7198.99910236 Ry
     estimated scf accuracy    <       0.00000775 Ry

     iteration # 16     ecut=    40.00 Ry     beta= 0.40
     Davidson diagonalization with overlap
     ethr =  1.86E-10,  avg # of iterations =  3.0

     total cpu time spent up to now is     6152.3 secs

     total energy              =   -7198.99910043 Ry
     Harris-Foulkes estimate   =   -7198.99910264 Ry
     estimated scf accuracy    <       0.00002636 Ry

     iteration # 17     ecut=    40.00 Ry     beta= 0.40
     Davidson diagonalization with overlap
     ethr =  1.86E-10,  avg # of iterations =  4.0

     total cpu time spent up to now is     6543.5 secs

     total energy              =   -7198.99910121 Ry
     Harris-Foulkes estimate   =   -7198.99910129 Ry
     estimated scf accuracy    <       0.00000034 Ry

     iteration # 18     ecut=    40.00 Ry     beta= 0.40
     Davidson diagonalization with overlap
     ethr =  5.86E-11,  avg # of iterations =  3.7

     total cpu time spent up to now is     6912.6 secs

     total energy              =   -7198.99910098 Ry
     Harris-Foulkes estimate   =   -7198.99910129 Ry
     estimated scf accuracy    <       0.00000364 Ry

     iteration # 19     ecut=    40.00 Ry     beta= 0.40
     Davidson diagonalization with overlap
     ethr =  5.86E-11,  avg # of iterations =  3.5

     total cpu time spent up to now is     7263.4 secs

     total energy              =   -7198.99910107 Ry
     Harris-Foulkes estimate   =   -7198.99910108 Ry
     estimated scf accuracy    <       0.00000002 Ry

     iteration # 20     ecut=    40.00 Ry     beta= 0.40
     Davidson diagonalization with overlap
     ethr =  2.83E-12,  avg # of iterations =  5.1

     total cpu time spent up to now is     7722.9 secs

     total energy              =   -7198.99910103 Ry
     Harris-Foulkes estimate   =   -7198.99910103 Ry
     estimated scf accuracy    <       0.00000004 Ry

     iteration # 21     ecut=    40.00 Ry     beta= 0.40
     Davidson diagonalization with overlap
     ethr =  2.83E-12,  avg # of iterations =  1.0

     total cpu time spent up to now is     7991.3 secs

     total energy              =   -7198.99910102 Ry
     Harris-Foulkes estimate   =   -7198.99910102 Ry
     estimated scf accuracy    <       0.00000002 Ry

     iteration # 22     ecut=    40.00 Ry     beta= 0.40
     Davidson diagonalization with overlap
     ethr =  2.59E-12,  avg # of iterations =  1.0

     total cpu time spent up to now is     8259.4 secs

     total energy              =   -7198.99910101 Ry
     Harris-Foulkes estimate   =   -7198.99910101 Ry
     estimated scf accuracy    <          9.3E-10 Ry

     iteration # 23     ecut=    40.00 Ry     beta= 0.40
     Davidson diagonalization with overlap
     ethr =  1.58E-13,  avg # of iterations =  4.8

     total cpu time spent up to now is     8633.0 secs

     total energy              =   -7198.99910098 Ry
     Harris-Foulkes estimate   =   -7198.99910098 Ry
     estimated scf accuracy    <          1.1E-10 Ry

     iteration # 24     ecut=    40.00 Ry     beta= 0.40
     Davidson diagonalization with overlap
     ethr =  1.00E-13,  avg # of iterations =  1.0

     total cpu time spent up to now is     8901.9 secs

     total energy              =   -7198.99910096 Ry
     Harris-Foulkes estimate   =   -7198.99910096 Ry
     estimated scf accuracy    <          1.2E-11 Ry

     iteration # 25     ecut=    40.00 Ry     beta= 0.40
     Davidson diagonalization with overlap
     ethr =  1.00E-13,  avg # of iterations =  1.0

     total cpu time spent up to now is     9171.9 secs

     total energy              =   -7198.99910096 Ry
     Harris-Foulkes estimate   =   -7198.99910096 Ry
     estimated scf accuracy    <          2.4E-11 Ry

     iteration # 26     ecut=    40.00 Ry     beta= 0.40
     Davidson diagonalization with overlap
     ethr =  1.00E-13,  avg # of iterations =  1.0

     total cpu time spent up to now is     9440.8 secs

     total energy              =   -7198.99910096 Ry
     Harris-Foulkes estimate   =   -7198.99910096 Ry
     estimated scf accuracy    <          2.2E-12 Ry

     iteration # 27     ecut=    40.00 Ry     beta= 0.40
     Davidson diagonalization with overlap
     ethr =  1.00E-13,  avg # of iterations =  1.0

     total cpu time spent up to now is     9709.5 secs

     total energy              =   -7198.99910095 Ry
     Harris-Foulkes estimate   =   -7198.99910095 Ry
     estimated scf accuracy    <          1.9E-12 Ry

     iteration # 28     ecut=    40.00 Ry     beta= 0.40
     Davidson diagonalization with overlap
     ethr =  1.00E-13,  avg # of iterations =  1.0

     total cpu time spent up to now is     9978.1 secs

     total energy              =   -7198.99910095 Ry
     Harris-Foulkes estimate   =   -7198.99910095 Ry
     estimated scf accuracy    <          2.5E-12 Ry

     iteration # 29     ecut=    40.00 Ry     beta= 0.40
     Davidson diagonalization with overlap
     ethr =  1.00E-13,  avg # of iterations =  1.0

     total cpu time spent up to now is    10245.5 secs

     End of self-consistent calculation

          k = 0.0000 0.0000 0.0000 ( 94423 PWs)   bands (ev):

    -3.5885  -3.4049  -3.3843  -3.3689  -3.3055  -3.2315  -3.1684  -3.1470
    -3.1356  -2.9352  -2.9319  -2.9082  -2.8284  -2.7465  -2.7137  -2.7081
    -2.6268  -2.5640  -2.5464  -2.5236  -2.4987  -2.2351  -2.1866  -2.1825
    -2.0856  -2.0477  -1.9584  -1.9488  -1.8892  -1.8229  -1.8112  -1.7218
    -1.6951  -1.6740  -1.6475  -1.6180  -1.5209  -1.4233  -1.3506  -1.2894
    -1.2082  -1.1575  -1.0856  -0.9986  -0.9697  -0.9211  -0.8738  -0.6575
    -0.5921  -0.4897  -0.4731  -0.4283  -0.4279  -0.3955  -0.3946  -0.3224
    -0.3083  -0.2138  -0.1669  -0.1457  -0.0072   0.0628   0.0955   0.1188
     0.1712   0.2167   0.2574   0.4037   0.4476   0.7165   0.7895   0.8861
     0.9957   1.0033   1.0366   1.0584   1.1199   1.1480   1.1703   1.1839
     1.1844   1.2413   1.2530   1.3235   1.3510   1.3653   1.3832   1.4699
     1.5722   1.7608   1.7807   1.8290   1.8326   1.8455   1.8689   1.8980
     1.9864   2.2122   2.2188   2.3814   2.4979   2.5481   2.5515   2.6359
     2.6475   2.6710   2.7016   2.7282   2.8234   2.8310   2.9356   3.0309
     3.0684   3.0968   3.1077   3.1329   3.1622   3.2927   3.3084   3.4265
     3.4284   3.5940   3.6075   3.6244   3.6761   3.6793   3.6838   3.7165
     3.7740   3.8087   3.8226   3.8693   3.8852   3.8873   3.9917   4.1111
     4.1249   4.4291   4.4440   4.4864   4.4893   4.5159   4.5436   4.5959
     4.7000   4.7298   4.7651   4.7934   4.8227   4.8522   4.8649   4.8657
     4.9029   4.9226   4.9493   4.9687   4.9714   5.0073   5.0108   5.0482
     5.2075   5.2083   5.2311   5.3029   5.3039   5.3232   5.3283   5.3344
     5.3734   5.3862   5.3904   5.3992   5.4245   5.4600   5.4647   5.5018
     5.5215   5.5229   5.5685   5.5729   5.6142   5.6277   5.6605   5.6752
     5.6761   5.7233   5.7920   5.8437   5.8864   5.8980   5.9536   5.9706
     5.9890   5.9956   6.0609   6.0697   6.0863   6.1010   6.1204   6.1407
     6.1659   6.1782   6.2040   6.2239   6.2247   6.2558   6.2649   6.2666
     6.2688   6.2893   6.3023   6.3045   6.3049   6.3273   6.3410   6.3686
     6.3921   6.3965   6.4236   6.4423   6.4920   6.5187   6.5352   6.5500
     6.5877   6.6228   6.6247   6.7081   6.7220   6.7556   6.7588   6.7825
     6.7827   6.7916   6.7922   6.8125   6.8300   6.8840   6.8916   6.9025
     6.9222   6.9511   7.0251   7.0383   7.0485   7.0526   7.0918   7.1234
     7.1483   7.1548   7.1626   7.2467   7.2676   7.3146   7.3568   7.3607
     7.3737   7.3844   7.4088   7.4166   7.4300   7.4484   7.4535   7.4571
     7.4671   7.4852   7.5204   7.5256   7.5405   7.5672   7.6032   7.6049
     7.6097   7.6148   7.6212   7.6811   7.6913   7.6960   7.7027   7.7309
     7.7428   7.7650   7.7860   7.7888   7.7919   7.8330   7.8464   7.9316
     7.9484   7.9529   7.9713   7.9817   7.9961   8.0473   8.0601   8.0691
     8.0785   8.0892   8.0999   8.1153   8.1297   8.1427   8.1650   8.1719
     8.2008   8.2074   8.2220   8.2283   8.2632   8.2732   8.2790   8.3327
     8.3393   8.3764   8.3771   8.3974   8.4067   8.4287   8.4739   8.5387
     8.5550   8.6049   8.6220   8.6659   8.6686   8.7036   8.7049   8.7216
     8.7362   8.7819   8.7846   8.7902   8.8290   8.8386   8.8415   8.8486
     8.9024   8.9080   8.9273   8.9345   8.9378   8.9396   8.9497   8.9761
     8.9771   8.9880   9.0081   9.0154   9.0172   9.0331   9.0386   9.0395
     9.0546

     occupation numbers 
     1.0000   1.0000   1.0000   1.0000   1.0000   1.0000   1.0000   1.0000
     1.0000   1.0000   1.0000   1.0000   1.0000   1.0000   1.0000   1.0000
     1.0000   1.0000   1.0000   1.0000   1.0000   1.0000   1.0000   1.0000
     1.0000   1.0000   1.0000   1.0000   1.0000   1.0000   1.0000   1.0000
     1.0000   1.0000   1.0000   1.0000   1.0000   1.0000   1.0000   1.0000
     1.0000   1.0000   1.0000   1.0000   1.0000   1.0000   1.0000   1.0000
     1.0000   1.0000   1.0000   1.0000   1.0000   1.0000   1.0000   1.0000
     1.0000   1.0000   1.0000   1.0000   1.0000   1.0000   1.0000   1.0000
     1.0000   1.0000   1.0000   1.0000   1.0000   1.0000   1.0000   1.0000
     1.0000   1.0000   1.0000   1.0000   1.0000   1.0000   1.0000   1.0000
     1.0000   1.0000   1.0000   1.0000   1.0000   1.0000   1.0000   1.0000
     1.0000   1.0000   1.0000   1.0000   1.0000   1.0000   1.0000   1.0000
     1.0000   1.0000   1.0000   1.0000   1.0000   1.0000   1.0000   1.0000
     1.0000   1.0000   1.0000   1.0000   1.0000   1.0000   1.0000   1.0000
     1.0000   1.0000   1.0000   1.0000   1.0000   1.0000   1.0000   1.0000
     1.0000   1.0000   1.0000   1.0000   1.0000   1.0000   1.0000   1.0000
     1.0000   1.0000   1.0000   1.0000   1.0000   1.0000   1.0000   1.0000
     1.0000   1.0000   1.0000   1.0000   1.0000   1.0000   1.0000   1.0000
     1.0000   1.0000   1.0000   1.0000   1.0000   1.0000   1.0000   1.0000
     1.0000   1.0000   1.0000   1.0000   1.0000   1.0000   1.0000   1.0000
     1.0000   1.0000   1.0000   1.0000   1.0000   1.0000   1.0000   1.0000
     1.0000   1.0000   1.0000   1.0000   1.0000   1.0000   1.0000   1.0000
     1.0000   1.0000   1.0000   1.0000   1.0000   1.0000   1.0000   1.0000
     1.0000   1.0000   1.0000   1.0000   1.0001   1.0001   1.0001   1.0001
     1.0002   1.0002   1.0003   1.0003   1.0004   1.0004   1.0005   1.0006
     1.0007   1.0008   1.0010   1.0011   1.0012   1.0014   1.0015   1.0016
     1.0016   1.0018   1.0020   1.0020   1.0020   1.0024   1.0026   1.0031
     1.0037   1.0038   1.0044   1.0050   1.0066   1.0077   1.0084   1.0091
     1.0110   1.0130   1.0131   1.0187   1.0198   1.0223   1.0225   1.0244
     1.0244   1.0251   1.0251   1.0267   1.0280   1.0317   1.0321   1.0328
     1.0337   1.0348   1.0349   1.0344   1.0338   1.0336   1.0300   1.0255
     1.0207   1.0193   1.0175   0.9896   0.9800   0.9545   0.9265   0.9236
     0.9138   0.9054   0.8851   0.8782   0.8660   0.8484   0.8435   0.8398
     0.8297   0.8107   0.7715   0.7654   0.7477   0.7150   0.6687   0.6665
     0.6601   0.6533   0.6447   0.5626   0.5483   0.5416   0.5322   0.4924
     0.4757   0.4445   0.4153   0.4114   0.4071   0.3511   0.3334   0.2275
     0.2085   0.2034   0.1836   0.1726   0.1581   0.1107   0.0999   0.0926
     0.0853   0.0773   0.0695   0.0590   0.0497   0.0418   0.0293   0.0257
     0.0120   0.0092   0.0033   0.0009  -0.0107  -0.0135  -0.0151  -0.0263
    -0.0273  -0.0318  -0.0319  -0.0335  -0.0341  -0.0350  -0.0354  -0.0333
    -0.0324  -0.0292  -0.0279  -0.0246  -0.0244  -0.0217  -0.0216  -0.0203
    -0.0192  -0.0160  -0.0158  -0.0154  -0.0130  -0.0124  -0.0122  -0.0118
    -0.0090  -0.0088  -0.0079  -0.0076  -0.0075  -0.0074  -0.0070  -0.0060
    -0.0060  -0.0056  -0.0050  -0.0048  -0.0047  -0.0043  -0.0042  -0.0041
    -0.0038

          k = 0.0000 0.0000 0.3333 ( 94408 PWs)   bands (ev):

    -3.5830  -3.4425  -3.3916  -3.3375  -3.2676  -3.2607  -3.2081  -3.0781
    -3.0653  -3.0323  -2.9532  -2.8973  -2.8559  -2.8068  -2.7562  -2.6881
    -2.6024  -2.5188  -2.4977  -2.4351  -2.3668  -2.3438  -2.2571  -2.2011
    -2.1582  -2.0636  -2.0294  -1.9366  -1.8831  -1.8229  -1.7908  -1.7181
    -1.7006  -1.6656  -1.6188  -1.5293  -1.4571  -1.4192  -1.3673  -1.2954
    -1.2300  -1.2036  -1.0477  -0.9883  -0.9306  -0.8570  -0.8091  -0.7812
    -0.7047  -0.6086  -0.5385  -0.4824  -0.4343  -0.4220  -0.4026  -0.3537
    -0.2494  -0.2030  -0.1495  -0.0325   0.0141   0.0680   0.1292   0.2261
     0.3131   0.3561   0.4077   0.4919   0.5454   0.5927   0.6296   0.6776
     0.7294   0.7761   0.8266   0.9019   1.0391   1.1179   1.1589   1.1749
     1.3121   1.3309   1.3564   1.4197   1.4696   1.5051   1.5576   1.6116
     1.6717   1.7038   1.7055   1.8146   1.8201   1.9427   1.9934   2.0149
     2.1049   2.1541   2.2141   2.2308   2.3633   2.4078   2.4279   2.4471
     2.5026   2.5887   2.6668   2.9011   2.9566   2.9741   3.0180   3.0422
     3.0739   3.1006   3.1558   3.1697   3.2078   3.2241   3.2780   3.3144
     3.3553   3.4173   3.4570   3.5168   3.5290   3.5888   3.7390   3.7904
     3.8260   3.8470   3.9385   4.0309   4.0558   4.1351   4.1959   4.2611
     4.3191   4.3535   4.3843   4.4223   4.4610   4.5207   4.5676   4.6491
     4.7163   4.7626   4.7693   4.7840   4.8174   4.8442   4.8522   4.8782
     4.8982   4.9158   4.9373   4.9598   4.9710   4.9770   4.9806   5.0331
     5.0840   5.0924   5.1045   5.1195   5.1429   5.2059   5.2073   5.2506
     5.2697   5.2809   5.2961   5.3131   5.3380   5.3496   5.3768   5.4218
     5.5617   5.5999   5.6277   5.6668   5.6925   5.7083   5.7321   5.7494
     5.7634   5.8376   5.8450   5.8755   5.9014   5.9050   5.9256   5.9955
     6.0136   6.0523   6.0756   6.0879   6.1197   6.1222   6.1353   6.1566
     6.1846   6.1983   6.2429   6.2558   6.2578   6.2654   6.2718   6.2810
     6.3241   6.3490   6.3615   6.3705   6.3770   6.4056   6.4185   6.4449
     6.4760   6.4921   6.4980   6.5133   6.5548   6.5599   6.5641   6.5892
     6.5909   6.6389   6.6425   6.6438   6.6753   6.7075   6.7268   6.7556
     6.7680   6.7707   6.8007   6.8230   6.8342   6.8393   6.9119   6.9249
     6.9375   6.9461   6.9492   6.9888   6.9976   7.0198   7.0541   7.0722
     7.1138   7.1208   7.1740   7.1815   7.1971   7.2106   7.2433   7.2556
     7.2924   7.3062   7.3173   7.3615   7.3956   7.4311   7.4355   7.4364
     7.4569   7.4861   7.4930   7.5172   7.5322   7.5569   7.5676   7.5929
     7.5943   7.6324   7.6372   7.6757   7.7084   7.7239   7.7271   7.7458
     7.7862   7.7974   7.8115   7.8354   7.8841   7.8957   7.9198   7.9260
     7.9486   7.9491   7.9535   7.9841   7.9890   8.0211   8.0268   8.0329
     8.0559   8.0686   8.1011   8.1212   8.1339   8.1470   8.1737   8.2078
     8.2130   8.2330   8.2575   8.2775   8.2997   8.3269   8.3348   8.3384
     8.3671   8.3844   8.3952   8.3996   8.4357   8.4718   8.4838   8.5024
     8.5250   8.5398   8.5584   8.5664   8.5976   8.6041   8.6425   8.6449
     8.6583   8.6714   8.6841   8.6957   8.7095   8.7277   8.7482   8.7815
     8.7962   8.8224   8.8363   8.8845   8.9000   8.9102   8.9437   8.9472
     8.9938   9.0188   9.0371   9.0413   9.0522   9.0609   9.0804   9.0884
     9.1031

     occupation numbers 
     1.0000   1.0000   1.0000   1.0000   1.0000   1.0000   1.0000   1.0000
     1.0000   1.0000   1.0000   1.0000   1.0000   1.0000   1.0000   1.0000
     1.0000   1.0000   1.0000   1.0000   1.0000   1.0000   1.0000   1.0000
     1.0000   1.0000   1.0000   1.0000   1.0000   1.0000   1.0000   1.0000
     1.0000   1.0000   1.0000   1.0000   1.0000   1.0000   1.0000   1.0000
     1.0000   1.0000   1.0000   1.0000   1.0000   1.0000   1.0000   1.0000
     1.0000   1.0000   1.0000   1.0000   1.0000   1.0000   1.0000   1.0000
     1.0000   1.0000   1.0000   1.0000   1.0000   1.0000   1.0000   1.0000
     1.0000   1.0000   1.0000   1.0000   1.0000   1.0000   1.0000   1.0000
     1.0000   1.0000   1.0000   1.0000   1.0000   1.0000   1.0000   1.0000
     1.0000   1.0000   1.0000   1.0000   1.0000   1.0000   1.0000   1.0000
     1.0000   1.0000   1.0000   1.0000   1.0000   1.0000   1.0000   1.0000
     1.0000   1.0000   1.0000   1.0000   1.0000   1.0000   1.0000   1.0000
     1.0000   1.0000   1.0000   1.0000   1.0000   1.0000   1.0000   1.0000
     1.0000   1.0000   1.0000   1.0000   1.0000   1.0000   1.0000   1.0000
     1.0000   1.0000   1.0000   1.0000   1.0000   1.0000   1.0000   1.0000
     1.0000   1.0000   1.0000   1.0000   1.0000   1.0000   1.0000   1.0000
     1.0000   1.0000   1.0000   1.0000   1.0000   1.0000   1.0000   1.0000
     1.0000   1.0000   1.0000   1.0000   1.0000   1.0000   1.0000   1.0000
     1.0000   1.0000   1.0000   1.0000   1.0000   1.0000   1.0000   1.0000
     1.0000   1.0000   1.0000   1.0000   1.0000   1.0000   1.0000   1.0000
     1.0000   1.0000   1.0000   1.0000   1.0000   1.0000   1.0000   1.0000
     1.0000   1.0000   1.0000   1.0000   1.0000   1.0000   1.0000   1.0000
     1.0000   1.0000   1.0000   1.0001   1.0001   1.0001   1.0001   1.0002
     1.0002   1.0003   1.0004   1.0004   1.0005   1.0005   1.0006   1.0007
     1.0008   1.0009   1.0013   1.0014   1.0015   1.0016   1.0016   1.0017
     1.0023   1.0028   1.0030   1.0032   1.0033   1.0040   1.0043   1.0051
     1.0061   1.0067   1.0069   1.0075   1.0093   1.0096   1.0098   1.0111
     1.0112   1.0140   1.0142   1.0143   1.0164   1.0187   1.0201   1.0223
     1.0233   1.0235   1.0258   1.0275   1.0283   1.0287   1.0333   1.0339
     1.0344   1.0347   1.0348   1.0355   1.0354   1.0351   1.0335   1.0321
     1.0270   1.0259   1.0146   1.0125   1.0079   1.0035   0.9910   0.9856
     0.9673   0.9595   0.9528   0.9230   0.8963   0.8650   0.8608   0.8601
     0.8401   0.8098   0.8023   0.7752   0.7577   0.7278   0.7145   0.6822
     0.6803   0.6297   0.6232   0.5700   0.5241   0.5023   0.4978   0.4714
     0.4150   0.3995   0.3801   0.3479   0.2848   0.2704   0.2413   0.2340
     0.2083   0.2076   0.2028   0.1702   0.1652   0.1341   0.1288   0.1232
     0.1034   0.0931   0.0687   0.0551   0.0471   0.0393   0.0248   0.0090
     0.0068  -0.0009  -0.0090  -0.0147  -0.0200  -0.0254  -0.0267  -0.0272
    -0.0309  -0.0325  -0.0334  -0.0336  -0.0352  -0.0354  -0.0352  -0.0348
    -0.0339  -0.0332  -0.0322  -0.0317  -0.0297  -0.0292  -0.0264  -0.0262
    -0.0252  -0.0242  -0.0232  -0.0223  -0.0212  -0.0199  -0.0184  -0.0160
    -0.0150  -0.0134  -0.0125  -0.0099  -0.0092  -0.0087  -0.0072  -0.0071
    -0.0054  -0.0047  -0.0042  -0.0041  -0.0038  -0.0036  -0.0032  -0.0030
    -0.0027

          k = 0.0000 0.3500 0.0000 ( 94367 PWs)   bands (ev):

    -3.5689  -3.3851  -3.3635  -3.3473  -3.2835  -3.2107  -3.1466  -3.1254
    -3.1138  -2.9141  -2.9110  -2.8881  -2.8075  -2.7251  -2.6935  -2.6868
    -2.6047  -2.5423  -2.5246  -2.5017  -2.4770  -2.2143  -2.1672  -2.1624
    -2.0639  -2.0270  -1.9388  -1.9278  -1.8687  -1.8027  -1.7906  -1.6997
    -1.6734  -1.6522  -1.6259  -1.5973  -1.4996  -1.4017  -1.3300  -1.2682
    -1.1877  -1.1359  -1.0648  -0.9778  -0.9483  -0.9002  -0.8528  -0.6393
    -0.5713  -0.4681  -0.4515  -0.4073  -0.4067  -0.3747  -0.3745  -0.3009
    -0.2876  -0.1922  -0.1455  -0.1243   0.0140   0.0840   0.1165   0.1398
     0.1924   0.2373   0.2780   0.4239   0.4687   0.7363   0.8096   0.9064
     1.0164   1.0237   1.0577   1.0792   1.1396   1.1696   1.1918   1.2046
     1.2057   1.2621   1.2739   1.3443   1.3720   1.3860   1.4026   1.4904
     1.5928   1.7809   1.8004   1.8490   1.8522   1.8656   1.8888   1.9184
     2.0063   2.2318   2.2389   2.4018   2.5178   2.5668   2.5712   2.6556
     2.6675   2.6906   2.7206   2.7476   2.8422   2.8497   2.9545   3.0512
     3.0895   3.1175   3.1279   3.1531   3.1820   3.3115   3.3281   3.4444
     3.4458   3.6114   3.6253   3.6429   3.6928   3.6967   3.7025   3.7340
     3.7933   3.8258   3.8422   3.8882   3.9043   3.9063   4.0105   4.1291
     4.1421   4.3229   4.4297   4.4403   4.4619   4.4670   4.4934   4.5016
     4.5206   4.5223   4.5424   4.5615   4.6052   4.6068   4.6459   4.6705
     4.6838   4.7529   4.7824   4.8156   4.8463   4.8747   4.9345   4.9369
     4.9564   4.9657   4.9778   5.0075   5.0452   5.0700   5.0765   5.1268
     5.1908   5.2006   5.2378   5.2625   5.2957   5.3269   5.3416   5.3518
     5.3879   5.4085   5.4224   5.4816   5.4959   5.5319   5.5510   5.6087
     5.6242   5.6459   5.6649   5.6979   5.7081   5.7369   5.7428   5.7754
     5.8076   5.8452   5.8489   5.8866   5.8946   5.9299   5.9602   5.9679
     5.9976   6.0199   6.0347   6.0631   6.1086   6.1167   6.1245   6.1807
     6.2066   6.2333   6.2352   6.2912   6.2926   6.3143   6.3261   6.3387
     6.3827   6.4265   6.4630   6.4764   6.5090   6.5640   6.5962   6.6682
     6.6692   6.6781   6.6948   6.7001   6.7057   6.7479   6.8047   6.8124
     6.8385   6.9019   6.9143   6.9191   6.9390   6.9850   6.9909   6.9976
     7.0443   7.0449   7.0632   7.0690   7.0853   7.1096   7.1424   7.1435
     7.1582   7.1713   7.1853   7.2385   7.2466   7.2538   7.2634   7.2799
     7.2901   7.3477   7.3507   7.3668   7.3722   7.3872   7.4190   7.4369
     7.4730   7.4946   7.4947   7.5189   7.5243   7.5399   7.5581   7.5772
     7.6127   7.6238   7.6351   7.6918   7.7108   7.7209   7.7327   7.7609
     7.7758   7.7813   7.8390   7.8665   7.8933   7.9138   7.9336   7.9532
     7.9849   8.0279   8.0382   8.0503   8.0753   8.0878   8.1022   8.1131
     8.1163   8.1294   8.1407   8.1527   8.1899   8.2136   8.2186   8.2254
     8.2588   8.2960   8.3063   8.3317   8.3488   8.3752   8.3787   8.3951
     8.4062   8.4285   8.4430   8.4433   8.4815   8.5142   8.5290   8.5686
     8.5744   8.5951   8.6108   8.6186   8.6328   8.6498   8.6787   8.6948
     8.7180   8.7326   8.7419   8.7589   8.7616   8.8120   8.8344   8.8371
     8.8639   8.8720   8.8911   8.9035   8.9213   8.9505   8.9513   8.9764
     8.9863   8.9871   9.0063   9.0147   9.0216   9.0227   9.0559   9.0727
     9.0749

     occupation numbers 
     1.0000   1.0000   1.0000   1.0000   1.0000   1.0000   1.0000   1.0000
     1.0000   1.0000   1.0000   1.0000   1.0000   1.0000   1.0000   1.0000
     1.0000   1.0000   1.0000   1.0000   1.0000   1.0000   1.0000   1.0000
     1.0000   1.0000   1.0000   1.0000   1.0000   1.0000   1.0000   1.0000
     1.0000   1.0000   1.0000   1.0000   1.0000   1.0000   1.0000   1.0000
     1.0000   1.0000   1.0000   1.0000   1.0000   1.0000   1.0000   1.0000
     1.0000   1.0000   1.0000   1.0000   1.0000   1.0000   1.0000   1.0000
     1.0000   1.0000   1.0000   1.0000   1.0000   1.0000   1.0000   1.0000
[...]
     atom   13 type  1   force =     0.00000004   -0.00000000   -0.00000008
     atom   14 type  1   force =     0.00000002    0.00000000   -0.00000007
     atom   15 type  1   force =     0.00000005    0.00000000   -0.00000007
     atom   16 type  1   force =     0.00000001   -0.00000000   -0.00000008
     atom   17 type  1   force =     0.00000005    0.00000000   -0.00000007
     atom   18 type  1   force =     0.00000002    0.00000000   -0.00000006
     atom   19 type  1   force =     0.00000005   -0.00000000   -0.00000005
     atom   20 type  1   force =     0.00000002    0.00000000   -0.00000005
     atom   21 type  1   force =     0.00000004    0.00000000    0.00000000
     atom   22 type  1   force =     0.00000002   -0.00000000   -0.00000002
     atom   23 type  1   force =     0.00000006   -0.00000000    0.00000003
     atom   24 type  1   force =     0.00000005    0.00000000    0.00000001
     atom   25 type  1   force =     0.00000006   -0.00000000    0.00000002
     atom   26 type  1   force =     0.00000005   -0.00000000    0.00000003
     atom   27 type  1   force =     0.00000006    0.00000000    0.00000003
     atom   28 type  1   force =     0.00000005   -0.00000000    0.00000004
     atom   29 type  1   force =     0.00000007   -0.00000000    0.00000005
     atom   30 type  1   force =     0.00000004    0.00000000    0.00000006
     atom   31 type  1   force =     0.00000006    0.00000000    0.00000005
     atom   32 type  1   force =     0.00000002   -0.00000000    0.00000005
     atom   33 type  2   force =     0.00000009   -0.00000000    0.00000010
     atom   34 type  3   force =     0.00000004   -0.00000000    0.00000003
     atom   35 type  1   force =     0.00000008    0.00000000    0.00000005
     atom   36 type  2   force =     0.00000012    0.00000000    0.00000007
     atom   37 type  2   force =     0.00000011   -0.00000000   -0.00000004
     atom   38 type  3   force =     0.00000004   -0.00000000    0.00000002
     atom   39 type  1   force =     0.00000007    0.00000000   -0.00000003
     atom   40 type  1   force =     0.00000004    0.00000000   -0.00000004
     atom   41 type  1   force =     0.00000009    0.00000000   -0.00000004
     atom   42 type  1   force =     0.00000007   -0.00000000   -0.00000006
     atom   43 type  1   force =     0.00000009   -0.00000000   -0.00000004
     atom   44 type  1   force =     0.00000010    0.00000000   -0.00000006
     atom   45 type  1   force =     0.00000007    0.00000000   -0.00000010
     atom   46 type  1   force =     0.00000010   -0.00000000   -0.00000008
     atom   47 type  1   force =     0.00000006   -0.00000000   -0.00000009
     atom   48 type  1   force =     0.00000007    0.00000000   -0.00000007
     atom   49 type  1   force =     0.00000006    0.00000000   -0.00000001
     atom   50 type  1   force =     0.00000005   -0.00000000   -0.00000000
     atom   51 type  1   force =     0.00000006   -0.00000000    0.00000003
     atom   52 type  1   force =     0.00000005    0.00000000    0.00000004
     atom   53 type  1   force =     0.00000005    0.00000000    0.00000002
     atom   54 type  1   force =     0.00000005   -0.00000000    0.00000002
     atom   55 type  1   force =     0.00000006   -0.00000000    0.00000003
     atom   56 type  1   force =     0.00000005   -0.00000000    0.00000003
     atom   57 type  1   force =    -0.00000000   -0.00000000    0.00000008
     atom   58 type  1   force =     0.00000007    0.00000000    0.00000006
     atom   59 type  3   force =     0.00000002   -0.00000000    0.00000006
     atom   60 type  1   force =     0.00000009    0.00000000    0.00000005
     atom   61 type  2   force =     0.00000010    0.00000000    0.00000007
     atom   62 type  3   force =     0.00000005   -0.00000000    0.00000004
     atom   63 type  3   force =     0.00000002    0.00000000    0.00000003
     atom   64 type  2   force =     0.00000008    0.00000000    0.00000008
     atom   65 type  1   force =     0.00000002   -0.00000000    0.00000002
     atom   66 type  3   force =     0.00000005   -0.00000000    0.00000001
     atom   67 type  2   force =     0.00000004   -0.00000000   -0.00000001
     atom   68 type  3   force =     0.00000006    0.00000000   -0.00000002
     atom   69 type  1   force =     0.00000002    0.00000000   -0.00000007
     atom   70 type  2   force =     0.00000013   -0.00000000   -0.00000005
     atom   71 type  2   force =     0.00000002   -0.00000000   -0.00000015
     atom   72 type  3   force =     0.00000003    0.00000000   -0.00000005
     atom   73 type  1   force =     0.00000002   -0.00000000   -0.00000010
     atom   74 type  1   force =     0.00000001   -0.00000000   -0.00000010
     atom   75 type  1   force =     0.00000003   -0.00000000   -0.00000006
     atom   76 type  1   force =     0.00000003    0.00000000   -0.00000008
     atom   77 type  1   force =     0.00000003    0.00000000   -0.00000001
     atom   78 type  1   force =     0.00000004   -0.00000000    0.00000000
     atom   79 type  1   force =     0.00000001   -0.00000000    0.00000001
     atom   80 type  1   force =     0.00000004    0.00000000    0.00000003
     atom   81 type  1   force =    -0.00000001    0.00000000    0.00000002
     atom   82 type  1   force =     0.00000004   -0.00000000    0.00000002
     atom   83 type  1   force =    -0.00000001   -0.00000000    0.00000007
     atom   84 type  1   force =     0.00000005    0.00000000    0.00000005
     atom   85 type  1   force =    -0.00000001    0.00000000    0.00000010
     atom   86 type  1   force =    -0.00000002   -0.00000000    0.00000009
     atom   87 type  3   force =    -0.00000003   -0.00000000    0.00000005
     atom   88 type  2   force =    -0.00000002    0.00000000    0.00000015
     atom   89 type  2   force =    -0.00000013    0.00000000    0.00000004
     atom   90 type  1   force =    -0.00000002    0.00000000    0.00000006
     atom   91 type  3   force =    -0.00000006    0.00000000    0.00000002
     atom   92 type  2   force =    -0.00000004   -0.00000000    0.00000001
     atom   93 type  3   force =    -0.00000005    0.00000000   -0.00000001
     atom   94 type  1   force =    -0.00000003    0.00000000   -0.00000001
     atom   95 type  2   force =    -0.00000008   -0.00000000   -0.00000008
     atom   96 type  3   force =    -0.00000003   -0.00000000   -0.00000002
     atom   97 type  3   force =    -0.00000006    0.00000000   -0.00000004
     atom   98 type  2   force =    -0.00000011    0.00000000   -0.00000007
     atom   99 type  1   force =    -0.00000009   -0.00000000   -0.00000005
     atom  100 type  3   force =    -0.00000002   -0.00000000   -0.00000006
     atom  101 type  1   force =    -0.00000007   -0.00000000   -0.00000006
     atom  102 type  1   force =    -0.00000000    0.00000000   -0.00000008
     atom  103 type  1   force =    -0.00000005    0.00000000   -0.00000005
     atom  104 type  1   force =     0.00000001   -0.00000000   -0.00000007
     atom  105 type  1   force =    -0.00000004    0.00000000   -0.00000002
     atom  106 type  1   force =     0.00000001   -0.00000000   -0.00000002
     atom  107 type  1   force =    -0.00000004    0.00000000   -0.00000003
     atom  108 type  1   force =    -0.00000001    0.00000000   -0.00000002
     atom  109 type  1   force =    -0.00000004    0.00000000    0.00000000
     atom  110 type  1   force =    -0.00000003   -0.00000000    0.00000001
     atom  111 type  1   force =    -0.00000003   -0.00000000    0.00000008
     atom  112 type  1   force =    -0.00000003    0.00000000    0.00000007
     atom  113 type  1   force =    -0.00000009   -0.00000000    0.00000007
     atom  114 type  1   force =    -0.00000007   -0.00000000    0.00000010
     atom  115 type  1   force =    -0.00000009   -0.00000000    0.00000005
     atom  116 type  1   force =    -0.00000008    0.00000000    0.00000004
     atom  117 type  1   force =    -0.00000006   -0.00000000    0.00000006
     atom  118 type  1   force =    -0.00000008   -0.00000000    0.00000003
     atom  119 type  1   force =    -0.00000004   -0.00000000    0.00000004
     atom  120 type  1   force =    -0.00000007   -0.00000000    0.00000003
     atom  121 type  3   force =    -0.00000004    0.00000000   -0.00000002
     atom  122 type  2   force =    -0.00000011   -0.00000000    0.00000004
     atom  123 type  2   force =    -0.00000012   -0.00000000   -0.00000007
     atom  124 type  1   force =    -0.00000008   -0.00000000   -0.00000005
     atom  125 type  3   force =    -0.00000004   -0.00000000   -0.00000003
     atom  126 type  2   force =    -0.00000009    0.00000000   -0.00000010
     atom  127 type  1   force =    -0.00000003    0.00000000   -0.00000005
     atom  128 type  1   force =    -0.00000007   -0.00000000   -0.00000005
     atom  129 type  1   force =    -0.00000005   -0.00000000   -0.00000006
     atom  130 type  1   force =    -0.00000007    0.00000000   -0.00000005
     atom  131 type  1   force =    -0.00000005    0.00000000   -0.00000003
     atom  132 type  1   force =    -0.00000006   -0.00000000   -0.00000003
     atom  133 type  1   force =    -0.00000005   -0.00000000   -0.00000001
     atom  134 type  1   force =    -0.00000006    0.00000000   -0.00000002
     atom  135 type  1   force =    -0.00000005    0.00000000   -0.00000002
     atom  136 type  1   force =    -0.00000005   -0.00000000   -0.00000002
     atom  137 type  1   force =    -0.00000005   -0.00000000    0.00000001
     atom  138 type  1   force =    -0.00000004    0.00000000    0.00000001
     atom  139 type  1   force =    -0.00000007    0.00000000    0.00000006
     atom  140 type  1   force =    -0.00000005   -0.00000000    0.00000008
     atom  141 type  1   force =    -0.00000001   -0.00000000    0.00000006
     atom  142 type  1   force =    -0.00000005    0.00000000    0.00000006
     atom  143 type  1   force =    -0.00000001    0.00000000    0.00000007
     atom  144 type  1   force =    -0.00000005   -0.00000000    0.00000007
     atom  145 type  1   force =    -0.00000002   -0.00000000    0.00000007
     atom  146 type  1   force =    -0.00000004    0.00000000    0.00000008
     atom  147 type  1   force =    -0.00000004   -0.00000000    0.00000002
     atom  148 type  1   force =    -0.00000005    0.00000000    0.00000004
     atom  149 type  1   force =    -0.00000004    0.00000000   -0.00000005
     atom  150 type  1   force =    -0.00000007   -0.00000000   -0.00000005
     atom  151 type  1   force =    -0.00000002   -0.00000000   -0.00000005
     atom  152 type  1   force =    -0.00000007    0.00000000   -0.00000005
     atom  153 type  1   force =    -0.00000003    0.00000000   -0.00000002
     atom  154 type  1   force =    -0.00000007    0.00000000   -0.00000001
     atom  155 type  1   force =    -0.00000004    0.00000000   -0.00000004
     atom  156 type  1   force =    -0.00000006    0.00000000   -0.00000005
     atom  157 type  1   force =    -0.00000004   -0.00000000   -0.00000005
     atom  158 type  1   force =    -0.00000006    0.00000000   -0.00000006
     atom  159 type  1   force =    -0.00000003   -0.00000000   -0.00000004
     atom  160 type  1   force =    -0.00000006   -0.00000000   -0.00000003
     atom  161 type  1   force =    -0.00000004    0.00000000   -0.00000003
     atom  162 type  1   force =    -0.00000007    0.00000000   -0.00000002
     atom  163 type  1   force =    -0.00000004   -0.00000000   -0.00000000
     atom  164 type  1   force =    -0.00000007   -0.00000000   -0.00000002
     atom  165 type  1   force =    -0.00000003   -0.00000000    0.00000003
     atom  166 type  1   force =    -0.00000006    0.00000000    0.00000001
     atom  167 type  1   force =    -0.00000002   -0.00000000    0.00000005
     atom  168 type  1   force =    -0.00000005   -0.00000000    0.00000005
     atom  169 type  1   force =     0.00000000    0.00000000    0.00000006
     atom  170 type  1   force =    -0.00000002   -0.00000000    0.00000006
     atom  171 type  1   force =    -0.00000001    0.00000000    0.00000006
     atom  172 type  1   force =    -0.00000002   -0.00000000    0.00000007
     atom  173 type  1   force =    -0.00000002   -0.00000000    0.00000004
     atom  174 type  1   force =    -0.00000002    0.00000000    0.00000006
     atom  175 type  1   force =    -0.00000003   -0.00000000    0.00000003
     atom  176 type  1   force =    -0.00000003    0.00000000    0.00000001
     atom  177 type  1   force =     0.00000000    0.00000000    0.00000002
     atom  178 type  1   force =     0.00000000   -0.00000000   -0.00000002
     atom  179 type  1   force =     0.00000003   -0.00000000   -0.00000002
     atom  180 type  1   force =     0.00000003    0.00000000   -0.00000004
     atom  181 type  1   force =     0.00000003    0.00000000   -0.00000005
     atom  182 type  1   force =     0.00000003   -0.00000000   -0.00000004
     atom  183 type  1   force =     0.00000002    0.00000000   -0.00000008
     atom  184 type  1   force =     0.00000001   -0.00000000   -0.00000006
     atom  185 type  1   force =     0.00000001   -0.00000000   -0.00000006
     atom  186 type  1   force =    -0.00000001    0.00000000   -0.00000006
     atom  187 type  1   force =     0.00000000   -0.00000000   -0.00000004
     atom  188 type  1   force =    -0.00000001    0.00000000   -0.00000004
     atom  189 type  1   force =     0.00000000    0.00000000   -0.00000003
     atom  190 type  1   force =    -0.00000001   -0.00000000   -0.00000003
     atom  191 type  1   force =     0.00000001   -0.00000000   -0.00000000
     atom  192 type  1   force =    -0.00000001    0.00000000   -0.00000000
     atom  193 type  1   force =     0.00000001    0.00000000    0.00000003
     atom  194 type  1   force =    -0.00000001   -0.00000000    0.00000003
     atom  195 type  1   force =     0.00000001   -0.00000000    0.00000005
     atom  196 type  1   force =    -0.00000002    0.00000000    0.00000005

     Total force =     0.007627     Total SCF correction =     0.000001


     Computing stress (Cartesian axis) and pressure

          total   stress  (Ry/bohr**3)                   (kbar)     P=    6.37
   0.00005574   0.00000000   0.00000005          8.20      0.00      0.01
   0.00000000   0.00002608   0.00000000          0.00      3.84      0.00
   0.00000005   0.00000000   0.00004808          0.01      0.00      7.07

     kinetic stress (kbar)   1487.55     -0.00      1.03
                               -0.00   1486.39     -0.00
                                1.03     -0.00   1484.31

     local   stress (kbar)    510.70     -0.00      4.66
                               -0.00    504.13     -0.00
                                4.66     -0.00    486.94

     nonloc. stress (kbar)   1085.08      0.00      0.44
                                0.00   1084.20      0.00
                                0.44      0.00   1085.69

     hartree stress (kbar)     40.43      0.00      0.19
                                0.00     59.99      0.00
                                0.19      0.00     44.63

     exc-cor stress (kbar)    746.34      0.00      0.01
                                0.00    746.26      0.00
                                0.01      0.00    746.41

     corecor stress (kbar)  -1529.15     -0.00     -0.07
                               -0.00  -1528.98     -0.00
                               -0.07     -0.00  -1529.20

     ewald   stress (kbar)  -2332.75      0.00     -6.24
                                0.00  -2348.16      0.00
                               -6.24      0.00  -2311.71

     hubbard stress (kbar)      0.00      0.00      0.00
                                0.00      0.00      0.00
                                0.00      0.00      0.00

     london  stress (kbar)      0.00      0.00      0.00
                                0.00      0.00      0.00
                                0.00      0.00      0.00

     DFT-D3  stress (kbar)      0.00      0.00      0.00
                                0.00      0.00      0.00
                                0.00      0.00      0.00

     XDM     stress (kbar)      0.00      0.00      0.00
                                0.00      0.00      0.00
                                0.00      0.00      0.00

     dft-nl  stress (kbar)      0.00      0.00      0.00
                                0.00      0.00      0.00
                                0.00      0.00      0.00

     TS-vdW  stress (kbar)      0.00      0.00      0.00
                                0.00      0.00      0.00
                                0.00      0.00      0.00



     Writing output data file aiida.save/
 
     init_run     :    240.36s CPU    243.04s WALL (       1 calls)
     electrons    :   9920.15s CPU  10000.35s WALL (       1 calls)
     forces       :    105.72s CPU    106.68s WALL (       1 calls)
     stress       :   1200.74s CPU   1202.75s WALL (       1 calls)

     Called by init_run:
     wfcinit      :    227.13s CPU    229.32s WALL (       1 calls)
     wfcinit:atom :      0.44s CPU      0.91s WALL (       3 calls)
     wfcinit:wfcr :    223.07s CPU    224.01s WALL (       3 calls)
     potinit      :      4.67s CPU      4.90s WALL (       1 calls)
     hinit0       :      6.67s CPU      6.77s WALL (       1 calls)

     Called by electrons:
     c_bands      :   8555.21s CPU   8613.58s WALL (      29 calls)
     sum_band     :   1250.31s CPU   1257.35s WALL (      29 calls)
     v_of_rho     :     52.58s CPU     59.33s WALL (      30 calls)
     v_h          :      5.21s CPU      6.29s WALL (      30 calls)
     v_xc         :     50.01s CPU     55.83s WALL (      32 calls)
     newd         :     10.37s CPU     14.05s WALL (      30 calls)
     PAW_pot      :      8.61s CPU      9.13s WALL (      30 calls)
     mix_rho      :     36.55s CPU     39.50s WALL (      29 calls)

     Called by c_bands:
     init_us_2    :    123.65s CPU    124.20s WALL (     183 calls)
     cegterg      :   7442.39s CPU   7498.07s WALL (      87 calls)

     Called by sum_band:
     sum_band:bec :      1.43s CPU      1.43s WALL (      87 calls)
     addusdens    :      7.73s CPU     10.94s WALL (      29 calls)

     Called by *egterg:
     h_psi        :   5160.58s CPU   5185.57s WALL (     393 calls)
     s_psi        :   1364.98s CPU   1367.17s WALL (     393 calls)
     g_psi        :      7.66s CPU      7.67s WALL (     303 calls)
     cdiaghg      :    215.79s CPU    216.47s WALL (     390 calls)
     cegterg:over :    360.13s CPU    360.73s WALL (     303 calls)
     cegterg:upda :    247.63s CPU    254.76s WALL (     303 calls)
     cegterg:last :    151.11s CPU    151.12s WALL (      93 calls)

     Called by h_psi:
     h_psi:pot    :   5152.23s CPU   5165.00s WALL (     393 calls)
     h_psi:calbec :   1343.61s CPU   1343.80s WALL (     393 calls)
     vloc_psi     :   2430.54s CPU   2440.59s WALL (     393 calls)
     add_vuspsi   :   1378.08s CPU   1380.61s WALL (     393 calls)

     General routines
     calbec       :   1959.43s CPU   1959.75s WALL (     495 calls)
     fft          :     55.43s CPU     61.48s WALL (     414 calls)
     ffts         :     17.76s CPU     17.84s WALL (     485 calls)
     fftw         :   2540.27s CPU   2550.79s WALL (  184639 calls)
     interpolate  :      5.06s CPU      6.00s WALL (      30 calls)
 
     Parallel routines
     fft_scatt_xy :    632.72s CPU    635.13s WALL (  185538 calls)
     fft_scatt_yz :    579.72s CPU    586.06s WALL (  185538 calls)

     PAW routines
     PAW_pot      :      8.61s CPU      9.13s WALL (      30 calls)
 
     PWSCF        :      3h13m CPU      3h16m WALL

 
   This run was terminated on:   4:59:32  27Feb2020            

=------------------------------------------------------------------------------=
   JOB DONE.
=------------------------------------------------------------------------------=
