
     Program PWSCF v.6.3 starts on 22Feb2020 at 14:12:33 

     This program is part of the open-source Quantum ESPRESSO suite
     for quantum simulation of materials; please cite
         "P. Giannozzi et al., J. Phys.:Condens. Matter 21 395502 (2009);
         "P. Giannozzi et al., J. Phys.:Condens. Matter 29 465901 (2017);
          URL http://www.quantum-espresso.org", 
     in publications or presentations arising from this work. More details at
     http://www.quantum-espresso.org/quote

 *** WARNING: using old-style file format, will disappear from next version ***

     Parallel version (MPI & OpenMP), running on      36 processor cores
     Number of MPI processes:                36
     Threads/MPI process:                     1

     MPI processes distributed on     1 nodes
     K-points division:     npool     =       4
     R & G space division:  proc/nbgrp/npool/nimage =       9
     Reading input from aiida.in
Warning: card &IONS ignored
Warning: card   !PRESS_CONV_THR = 0.05                 ! JUST FOR VOLUME RELAXATIONS ignored
Warning: card / ignored

     Current dimensions of program PWSCF are:
     Max number of different atomic species (ntypx) = 10
     Max number of k-points (npk) =  40000
     Max angular momentum in pseudopotentials (lmaxx) =  3
               file Al.pbe-n-kjpaw_psl.1.0.0.UPF: wavefunction(s)  3S 3P renormalized
               file Mg.pbe-n-kjpaw_psl.0.3.0.UPF: wavefunction(s)  3S renormalized

     Subspace diagonalization in iterative solution of the eigenvalue problem:
     one sub-group per band group will be used
     scalapack distributed-memory algorithm (size of sub-group:  2*  2 procs)

 
     Parallelization info
     --------------------
     sticks:   dense  smooth     PW     G-vecs:    dense   smooth      PW
     Min        6163    2468    717               305608    77346   12050
     Max        6164    2469    718               305609    77347   12051
     Sum       55469   22215   6455              2750475   696117  108455
 


     bravais-lattice index     =            0
     lattice parameter (alat)  =     227.0099  a.u.
     unit-cell volume          =   20353.8703 (a.u.)^3
     number of atoms/cell      =          176
     number of atomic types    =            3
     number of electrons       =       528.00
     number of Kohn-Sham states=          317
     kinetic-energy cutoff     =      40.0000  Ry
     charge density cutoff     =     400.0000  Ry
     convergence threshold     =      1.0E-12
     mixing beta               =       0.4000
     number of iterations used =            8  local-TF  mixing
     Exchange-correlation      = PBE ( 1  4  3  4 0 0)

     celldm(1)= 227.009854  celldm(2)=   0.000000  celldm(3)=   0.000000
     celldm(4)=   0.000000  celldm(5)=   0.000000  celldm(6)=   0.000000

     crystal axes: (cart. coord. in units of alat)
               a(1) = (   1.000000   0.000000   0.000000 )  
               a(2) = (   0.000000   0.033772   0.000000 )  
               a(3) = (  -0.014050   0.000000   0.051517 )  

     reciprocal axes: (cart. coord. in units 2 pi/alat)
               b(1) = (  1.000000  0.000000  0.272727 )  
               b(2) = (  0.000000 29.609922  0.000000 )  
               b(3) = (  0.000000  0.000000 19.411087 )  


     PseudoPot. # 1 for Al read from file:
     /users/aglensk/Dropbox/Albert/scripts/dotfiles/scripts/potentials/quantum_espresso/pseudo_SSSPefV1.1_alalloy/Al.pbe-n-kjpaw_psl.1.0.0.UPF
     MD5 check sum: cfc449ca30b5f3223ec38ddd88ac046d
     Pseudo is Projector augmented-wave + core cor, Zval =  3.0
     Generated using "atomic" code by A. Dal Corso v.5.1
     Shape of augmentation charge: PSQ
     Using radial grid of 1135 points,  6 beta functions with: 
                l(1) =   0
                l(2) =   0
                l(3) =   1
                l(4) =   1
                l(5) =   2
                l(6) =   2
     Q(r) pseudized with 0 coefficients 


     PseudoPot. # 2 for Mg read from file:
     /users/aglensk/Dropbox/Albert/scripts/dotfiles/scripts/potentials/quantum_espresso/pseudo_SSSPefV1.1_alalloy/Mg.pbe-n-kjpaw_psl.0.3.0.UPF
     MD5 check sum: 24ecedc7f3e3cbe212e682f4413594e4
     Pseudo is Projector augmented-wave + core cor, Zval =  2.0
     Generated using "atomic" code by A. Dal Corso v.5.0.99 svn rev. 10869
     Shape of augmentation charge: PSQ
     Using radial grid of 1129 points,  4 beta functions with: 
                l(1) =   0
                l(2) =   0
                l(3) =   1
                l(4) =   1
     Q(r) pseudized with 0 coefficients 


     PseudoPot. # 3 for Si read from file:
     /users/aglensk/Dropbox/Albert/scripts/dotfiles/scripts/potentials/quantum_espresso/pseudo_SSSPefV1.1_alalloy/Si.pbe-n-rrkjus_psl.1.0.0.UPF
     MD5 check sum: 0b0bb1205258b0d07b9f9672cf965d36
     Pseudo is Ultrasoft + core correction, Zval =  4.0
     Generated using "atomic" code by A. Dal Corso v.5.1
     Using radial grid of 1141 points,  6 beta functions with: 
                l(1) =   0
                l(2) =   0
                l(3) =   1
                l(4) =   1
                l(5) =   2
                l(6) =   2
     Q(r) pseudized with 0 coefficients 


     atomic species   valence    mass     pseudopotential
        Al             3.00    26.98154     Al( 1.00)
        Mg             2.00    24.30500     Mg( 1.00)
        Si             4.00    28.08500     Si( 1.00)

     No symmetry found


                                    s                        frac. trans.

      isym =  1     identity                                     

 cryst.   s( 1) = (     1          0          0      )
                  (     0          1          0      )
                  (     0          0          1      )

 cart.    s( 1) = (  1.0000000  0.0000000  0.0000000 )
                  (  0.0000000  1.0000000  0.0000000 )
                  (  0.0000000  0.0000000  1.0000000 )


   Cartesian axes

     site n.     atom                  positions (alat units)
         1           Al  tau(   1) = (   0.0167735   0.0000000   0.0510003  )
         2           Mg  tau(   2) = (   0.0350379   0.0168862   0.0173768  )
         3           Mg  tau(   3) = (   0.0374350   0.0168862   0.0463679  )
         4           Mg  tau(   4) = (   0.0740462   0.0000000   0.0040905  )
         5           Mg  tau(   5) = (   0.0764187   0.0000000   0.0330408  )
         6           Si  tau(   6) = (   0.0287510   0.0000000   0.0334647  )
         7           Si  tau(   7) = (   0.0511545   0.0000000   0.0106492  )
         8           Al  tau(   8) = (   0.0498257   0.0000000   0.0317456  )
         9           Al  tau(   9) = (   0.0617244   0.0168862   0.0187829  )
        10           Si  tau(  10) = (   0.0605518   0.0168862   0.0399008  )
        11           Si  tau(  11) = (   0.0828345   0.0168862   0.0168405  )
        12           Al  tau(  12) = (   0.0809444   0.0168862   0.0509743  )
        13           Mg  tau(  13) = (   0.0995312   0.0000000   0.0174086  )
        14           Mg  tau(  14) = (   0.1019336   0.0000000   0.0463578  )
        15           Mg  tau(  15) = (   0.0088881   0.0168862   0.0042636  )
        16           Mg  tau(  16) = (   0.0120033   0.0168862   0.0325073  )
        17           Si  tau(  17) = (   0.0931706   0.0168862   0.0336391  )
        18           Si  tau(  18) = (   0.1154053   0.0168862   0.0105677  )
        19           Al  tau(  19) = (   0.9859371   0.0168862   0.0316339  )
        20           Al  tau(  20) = (   0.1260547   0.0000000   0.0187262  )
        21           Si  tau(  21) = (  -0.0023729   0.0000000   0.0398589  )
        22           Si  tau(  22) = (   0.0180708   0.0000000   0.0166828  )
        23           Al  tau(  23) = (   0.1452838   0.0000000   0.0509273  )
        24           Mg  tau(  24) = (   0.1638485   0.0168862   0.0173538  )
        25           Mg  tau(  25) = (   0.1662413   0.0168862   0.0463047  )
        26           Mg  tau(  26) = (   0.2026763   0.0000000   0.0040113  )
        27           Mg  tau(  27) = (   0.2050545   0.0000000   0.0329678  )
        28           Si  tau(  28) = (   0.1574716   0.0000000   0.0335759  )
        29           Si  tau(  29) = (   0.1797101   0.0000000   0.0105163  )
        30           Al  tau(  30) = (   0.1785604   0.0000000   0.0316281  )
        31           Al  tau(  31) = (   0.1903489   0.0168862   0.0186871  )
        32           Si  tau(  32) = (   0.1892007   0.0168862   0.0398011  )
        33           Si  tau(  33) = (   0.2114307   0.0168862   0.0167502  )
        34           Al  tau(  34) = (   0.2095660   0.0168862   0.0509210  )
        35           Mg  tau(  35) = (   0.2281190   0.0000000   0.0173581  )
        36           Mg  tau(  36) = (   0.2304992   0.0000000   0.0463067  )
        37           Mg  tau(  37) = (   0.1383687   0.0168862   0.0040453  )
        38           Mg  tau(  38) = (   0.1407699   0.0168862   0.0329842  )
        39           Si  tau(  39) = (   0.2217416   0.0168862   0.0335693  )
        40           Si  tau(  40) = (   0.2439562   0.0168862   0.0105147  )
        41           Al  tau(  41) = (   0.1142570   0.0168862   0.0316778  )
        42           Al  tau(  42) = (   0.2545716   0.0000000   0.0186932  )
        43           Si  tau(  43) = (   0.1249137   0.0000000   0.0398381  )
        44           Si  tau(  44) = (   0.1471467   0.0000000   0.0167675  )
        45           Al  tau(  45) = (   0.2737484   0.0000000   0.0509242  )
        46           Mg  tau(  46) = (   0.2922808   0.0168862   0.0173607  )
        47           Mg  tau(  47) = (   0.2946403   0.0168862   0.0463094  )
        48           Mg  tau(  48) = (   0.3310045   0.0000000   0.0040127  )
        49           Mg  tau(  49) = (   0.3333605   0.0000000   0.0329601  )
        50           Si  tau(  50) = (   0.2859090   0.0000000   0.0335758  )
        51           Si  tau(  51) = (   0.3080871   0.0000000   0.0105115  )
        52           Al  tau(  52) = (   0.3069558   0.0000000   0.0316232  )
        53           Al  tau(  53) = (   0.3186830   0.0168862   0.0186958  )
        54           Si  tau(  54) = (   0.3175482   0.0168862   0.0398096  )
        55           Si  tau(  55) = (   0.3397271   0.0168862   0.0167501  )
        56           Al  tau(  56) = (   0.3378359   0.0168862   0.0509215  )
        57           Mg  tau(  57) = (   0.3563791   0.0000000   0.0173603  )
        58           Mg  tau(  58) = (   0.3587140   0.0000000   0.0463475  )
        59           Mg  tau(  59) = (   0.2669055   0.0168862   0.0040120  )
        60           Mg  tau(  60) = (   0.2692604   0.0168862   0.0329750  )
        61           Si  tau(  61) = (   0.3500032   0.0168862   0.0335828  )
        62           Si  tau(  62) = (   0.3721998   0.0168862   0.0105611  )
        63           Al  tau(  63) = (   0.2428142   0.0168862   0.0316283  )
        64           Al  tau(  64) = (   0.3827912   0.0000000   0.0187712  )
        65           Si  tau(  65) = (   0.2534299   0.0000000   0.0398066  )
        66           Si  tau(  66) = (   0.2756245   0.0000000   0.0167518  )
        67           Al  tau(  67) = (   0.4019835   0.0000000   0.0510924  )
        68           Mg  tau(  68) = (   0.4205358   0.0168862   0.0175411  )
        69           Mg  tau(  69) = (   0.4228314   0.0168862   0.0465475  )
        70           Mg  tau(  70) = (   0.4594414   0.0000000   0.0043647  )
        71           Mg  tau(  71) = (   0.4617956   0.0000000   0.0334006  )
        72           Si  tau(  72) = (   0.4141214   0.0000000   0.0337308  )
        73           Si  tau(  73) = (   0.4363771   0.0000000   0.0107495  )
        74           Al  tau(  74) = (   0.4351962   0.0000000   0.0318833  )
        75           Al  tau(  75) = (   0.4470378   0.0168862   0.0189637  )
        76           Si  tau(  76) = (   0.4457029   0.0168862   0.0400718  )
        77           Si  tau(  77) = (   0.4680784   0.0168862   0.0173033  )
        78           Al  tau(  78) = (   0.4659930   0.0168862   0.0513035  )
        79           Mg  tau(  79) = (   0.4847839   0.0000000   0.0183107  )
        80           Mg  tau(  80) = (   0.4878354   0.0000000   0.0465915  )
        81           Mg  tau(  81) = (   0.3951361   0.0168862   0.0041144  )
        82           Mg  tau(  82) = (   0.3974613   0.0168862   0.0331031  )
        83           Si  tau(  83) = (   0.4787120   0.0168862   0.0341185  )
        84           Si  tau(  84) = (   0.4991065   0.0168862   0.0109910  )
        85           Al  tau(  85) = (   0.3710505   0.0168862   0.0316818  )
        86           Al  tau(  86) = (   0.5107471   0.0000000   0.0192911  )
        87           Si  tau(  87) = (   0.3816341   0.0000000   0.0398971  )
        88           Si  tau(  88) = (   0.4038377   0.0000000   0.0168979  )
        89           Al  tau(  89) = (   0.5381823   0.0000000   0.0375102  )
        90           Al  tau(  90) = (   0.5287884   0.0168862   0.0514857  )
        91           Al  tau(  91) = (   0.5521886   0.0168862   0.0467963  )
        92           Al  tau(  92) = (   0.5567963   0.0000000   0.0092658  )
        93           Al  tau(  93) = (   0.5801656   0.0000000   0.0046319  )
        94           Al  tau(  94) = (   0.5708167   0.0168862   0.0186774  )
        95           Al  tau(  95) = (   0.5941427   0.0168862   0.0140113  )
        96           Al  tau(  96) = (   0.6081040   0.0000000   0.0233971  )
        97           Al  tau(  97) = (   0.5006141   0.0168862   0.0326793  )
        98           Al  tau(  98) = (   0.5245422   0.0168862   0.0283965  )
        99           Al  tau(  99) = (   0.5139187   0.0000000   0.0421200  )
       100           Al  tau( 100) = (   0.5333940   0.0000000   0.0139829  )
       101           Al  tau( 101) = (   0.5475522   0.0168862   0.0233532  )
       102           Al  tau( 102) = (   0.5614190   0.0000000   0.0327087  )
       103           Al  tau( 103) = (   0.5847791   0.0000000   0.0280455  )
       104           Al  tau( 104) = (   0.5754554   0.0168862   0.0420911  )
       105           Al  tau( 105) = (   0.5987805   0.0168862   0.0374425  )
       106           Al  tau( 106) = (   0.5894220   0.0000000   0.0514723  )
       107           Al  tau( 107) = (   0.6127504   0.0000000   0.0468314  )
       108           Al  tau( 108) = (   0.6174554   0.0168862   0.0093557  )
       109           Al  tau( 109) = (   0.6314328   0.0000000   0.0187430  )
       110           Al  tau( 110) = (   0.5196592   0.0168862   0.0043766  )
       111           Al  tau( 111) = (   0.6594026   0.0000000   0.0375149  )
       112           Al  tau( 112) = (   0.6641087   0.0168862   0.0000436  )
       113           Al  tau( 113) = (   0.6733871   0.0168862   0.0468858  )
       114           Al  tau( 114) = (   0.6780925   0.0000000   0.0094181  )
       115           Al  tau( 115) = (   0.7014175   0.0000000   0.0047288  )
       116           Al  tau( 116) = (   0.6920734   0.0168862   0.0187819  )
       117           Al  tau( 117) = (   0.7154021   0.0168862   0.0140863  )
       118           Al  tau( 118) = (   0.7293938   0.0000000   0.0234436  )
       119           Al  tau( 119) = (   0.6220917   0.0168862   0.0327872  )
       120           Al  tau( 120) = (   0.6454214   0.0168862   0.0281328  )
       121           Al  tau( 121) = (   0.6360694   0.0000000   0.0421760  )
       122           Al  tau( 122) = (   0.6547654   0.0000000   0.0140902  )
       123           Al  tau( 123) = (   0.6687513   0.0168862   0.0234691  )
       124           Al  tau( 124) = (   0.6827303   0.0000000   0.0328345  )
       125           Al  tau( 125) = (   0.7060560   0.0000000   0.0281391  )
       126           Al  tau( 126) = (   0.6967113   0.0168862   0.0421930  )
       127           Al  tau( 127) = (   0.7200456   0.0168862   0.0374966  )
       128           Al  tau( 128) = (   0.7247483   0.0000000   0.0000328  )
       129           Al  tau( 129) = (   0.7340410   0.0000000   0.0468544  )
       130           Al  tau( 130) = (   0.7387423   0.0168862   0.0093904  )
       131           Al  tau( 131) = (   0.7527404   0.0000000   0.0187486  )
       132           Al  tau( 132) = (   0.6407848   0.0168862   0.0047055  )
       133           Al  tau( 133) = (   0.7807513   0.0000000   0.0374697  )
       134           Al  tau( 134) = (   0.7854485   0.0168862   0.0000047  )
       135           Al  tau( 135) = (   0.7947632   0.0168862   0.0468325  )
       136           Al  tau( 136) = (   0.7994593   0.0000000   0.0093667  )
       137           Al  tau( 137) = (   0.8228266   0.0000000   0.0046769  )
       138           Al  tau( 138) = (   0.8134724   0.0168862   0.0187288  )
       139           Al  tau( 139) = (   0.8368451   0.0168862   0.0140366  )
       140           Al  tau( 140) = (   0.8508666   0.0000000   0.0233855  )
       141           Al  tau( 141) = (   0.7433907   0.0168862   0.0328016  )
       142           Al  tau( 142) = (   0.7667433   0.0168862   0.0281083  )
       143           Al  tau( 143) = (   0.7573917   0.0000000   0.0421607  )
       144           Al  tau( 144) = (   0.7760957   0.0000000   0.0140564  )
       145           Al  tau( 145) = (   0.7901056   0.0168862   0.0234188  )
       146           Al  tau( 146) = (   0.8041180   0.0000000   0.0327810  )
       147           Al  tau( 147) = (   0.8274853   0.0000000   0.0280885  )
       148           Al  tau( 148) = (   0.8181335   0.0168862   0.0421428  )
       149           Al  tau( 149) = (   0.8415086   0.0168862   0.0374420  )
       150           Al  tau( 150) = (   0.8321517   0.0000000   0.0515002  )
       151           Al  tau( 151) = (   0.8555332   0.0000000   0.0467752  )
       152           Al  tau( 152) = (   0.8602330   0.0168862   0.0093259  )
       153           Al  tau( 153) = (   0.8742628   0.0000000   0.0186404  )
       154           Al  tau( 154) = (   0.7620910   0.0168862   0.0046961  )
       155           Al  tau( 155) = (   0.9023051   0.0000000   0.0372371  )
       156           Al  tau( 156) = (   0.8929556   0.0168862   0.0513206  )
       157           Al  tau( 157) = (   0.9163294   0.0168862   0.0465530  )
       158           Al  tau( 158) = (   0.9210269   0.0000000   0.0091114  )
       159           Al  tau( 159) = (   0.9443361   0.0000000   0.0043266  )
       160           Al  tau( 160) = (   0.9351046   0.0168862   0.0184379  )
       161           Al  tau( 161) = (   0.9583842   0.0168862   0.0135531  )
       162           Al  tau( 162) = (   0.9720836   0.0000000   0.0225944  )
       163           Al  tau( 163) = (   0.8649015   0.0168862   0.0327119  )
       164           Al  tau( 164) = (   0.8882886   0.0168862   0.0279404  )
       165           Al  tau( 165) = (   0.8789276   0.0000000   0.0420103  )
       166           Al  tau( 166) = (   0.8976349   0.0000000   0.0138598  )
       167           Al  tau( 167) = (   0.9116752   0.0168862   0.0231820  )
       168           Al  tau( 168) = (   0.9256893   0.0000000   0.0324853  )
       169           Al  tau( 169) = (   0.9490117   0.0000000   0.0277329  )
       170           Al  tau( 170) = (   0.9397594   0.0168862   0.0418317  )
       171           Al  tau( 171) = (   0.9632467   0.0168862   0.0370320  )
       172           Al  tau( 172) = (   0.9537529   0.0000000   0.0510638  )
       173           Al  tau( 173) = (   0.9770401   0.0000000   0.0465508  )
       174           Al  tau( 174) = (   0.9827200   0.0168862   0.0088280  )
       175           Al  tau( 175) = (  -0.0038956   0.0000000   0.0182087  )
       176           Al  tau( 176) = (   0.8836149   0.0168862   0.0045665  )

   Crystallographic axes

     site n.     atom                  positions (cryst. coord.)
         1           Al  tau(   1) = (  0.0306826  0.0000000  0.9899705  )
         2           Mg  tau(   2) = (  0.0397770  0.5000000  0.3373023  )
         3           Mg  tau(   3) = (  0.0500808  0.5000000  0.9000519  )
         4           Mg  tau(   4) = (  0.0751618  0.0000000  0.0794004  )
         5           Mg  tau(   5) = (  0.0854298  0.0000000  0.6413577  )
         6           Si  tau(   6) = (  0.0378777  0.0000000  0.6495870  )
         7           Si  tau(   7) = (  0.0540588  0.0000000  0.2067124  )
         8           Al  tau(   8) = (  0.0584836  0.0000000  0.6162176  )
         9           Al  tau(   9) = (  0.0668470  0.5000000  0.3645961  )
        10           Si  tau(  10) = (  0.0714338  0.5000000  0.7745173  )
        11           Si  tau(  11) = (  0.0874274  0.5000000  0.3268931  )
        12           Al  tau(  12) = (  0.0948465  0.5000000  0.9894663  )
        13           Mg  tau(  13) = (  0.1042790  0.0000000  0.3379200  )
        14           Mg  tau(  14) = (  0.1145766  0.0000000  0.8998548  )
        15           Mg  tau(  15) = (  0.0100509  0.5000000  0.0827615  )
        16           Mg  tau(  16) = (  0.0208689  0.5000000  0.6310022  )
        17           Si  tau(  17) = (  0.1023449  0.5000000  0.6529709  )
        18           Si  tau(  18) = (  0.1182874  0.5000000  0.2051299  )
        19           Al  tau(  19) = (  0.9945645  0.5000000  0.6140483  )
        20           Al  tau(  20) = (  0.1311619  0.0000000  0.3634963  )
        21           Si  tau(  21) = (  0.0084977  0.0000000  0.7737054  )
        22           Si  tau(  22) = (  0.0226207  0.0000000  0.3238321  )
        23           Al  tau(  23) = (  0.1591731  0.0000000  0.9885534  )
        24           Mg  tau(  24) = (  0.1685813  0.5000000  0.3368557  )
        25           Mg  tau(  25) = (  0.1788699  0.5000000  0.8988238  )
        26           Mg  tau(  26) = (  0.2037702  0.0000000  0.0778636  )
        27           Mg  tau(  27) = (  0.2140457  0.0000000  0.6399408  )
        28           Si  tau(  28) = (  0.1666286  0.0000000  0.6517449  )
        29           Si  tau(  29) = (  0.1825782  0.0000000  0.2041336  )
        30           Al  tau(  30) = (  0.1871863  0.0000000  0.6139362  )
        31           Al  tau(  31) = (  0.1954454  0.5000000  0.3627368  )
        32           Si  tau(  32) = (  0.2000556  0.5000000  0.7725824  )
        33           Si  tau(  33) = (  0.2159990  0.5000000  0.3251404  )
        34           Al  tau(  34) = (  0.2234536  0.5000000  0.9884327  )
        35           Mg  tau(  35) = (  0.2328530  0.0000000  0.3369388  )
        36           Mg  tau(  36) = (  0.2431283  0.0000000  0.8988626  )
        37           Mg  tau(  37) = (  0.1394719  0.5000000  0.0785243  )
        38           Mg  tau(  38) = (  0.1497656  0.5000000  0.6402598  )
        39           Si  tau(  39) = (  0.2308969  0.5000000  0.6516165  )
        40           Si  tau(  40) = (  0.2468238  0.5000000  0.2041014  )
        41           Al  tau(  41) = (  0.1228964  0.5000000  0.6149013  )
        42           Al  tau(  42) = (  0.2596697  0.0000000  0.3628548  )
        43           Si  tau(  43) = (  0.1357786  0.0000000  0.7733007  )
        44           Si  tau(  44) = (  0.1517196  0.0000000  0.3254756  )
        45           Al  tau(  45) = (  0.2876368  0.0000000  0.9884938  )
        46           Mg  tau(  46) = (  0.2970156  0.5000000  0.3369906  )
        47           Mg  tau(  47) = (  0.3072701  0.5000000  0.8989159  )
        48           Mg  tau(  48) = (  0.3320989  0.0000000  0.0778915  )
        49           Mg  tau(  49) = (  0.3423496  0.0000000  0.6397905  )
        50           Si  tau(  50) = (  0.2950660  0.0000000  0.6517434  )
        51           Si  tau(  51) = (  0.3109538  0.0000000  0.2040402  )
        52           Al  tau(  52) = (  0.3155803  0.0000000  0.6138412  )
        53           Al  tau(  53) = (  0.3237819  0.5000000  0.3629063  )
        54           Si  tau(  54) = (  0.3284054  0.5000000  0.7727480  )
        55           Si  tau(  55) = (  0.3442953  0.5000000  0.3251374  )
        56           Al  tau(  56) = (  0.3517236  0.5000000  0.9884425  )
        57           Mg  tau(  57) = (  0.3611137  0.0000000  0.3369818  )
        58           Mg  tau(  58) = (  0.3713543  0.0000000  0.8996561  )
        59           Mg  tau(  59) = (  0.2679997  0.5000000  0.0778777  )
        60           Mg  tau(  60) = (  0.2782536  0.5000000  0.6400814  )
        61           Si  tau(  61) = (  0.3591621  0.5000000  0.6518794  )
        62           Si  tau(  62) = (  0.3750801  0.5000000  0.2050022  )
        63           Al  tau(  63) = (  0.2514401  0.5000000  0.6139403  )
        64           Al  tau(  64) = (  0.3879106  0.0000000  0.3643689  )
        65           Si  tau(  65) = (  0.2642862  0.0000000  0.7726888  )
        66           Si  tau(  66) = (  0.2801932  0.0000000  0.3251716  )
        67           Al  tau(  67) = (  0.4159177  0.0000000  0.9917587  )
        68           Mg  tau(  68) = (  0.4253197  0.5000000  0.3404913  )
        69           Mg  tau(  69) = (  0.4355262  0.5000000  0.9035381  )
        70           Mg  tau(  70) = (  0.4606318  0.0000000  0.0847244  )
        71           Mg  tau(  71) = (  0.4709049  0.0000000  0.6483411  )
        72           Si  tau(  72) = (  0.4233207  0.0000000  0.6547507  )
        73           Si  tau(  73) = (  0.4393088  0.0000000  0.2086598  )
        74           Al  tau(  74) = (  0.4438916  0.0000000  0.6188891  )
        75           Al  tau(  75) = (  0.4522097  0.5000000  0.3681065  )
        76           Si  tau(  76) = (  0.4566316  0.5000000  0.7778373  )
        77           Si  tau(  77) = (  0.4727974  0.5000000  0.3358751  )
        78           Al  tau(  78) = (  0.4799849  0.5000000  0.9958563  )
        79           Mg  tau(  79) = (  0.4897778  0.0000000  0.3554300  )
        80           Mg  tau(  80) = (  0.5005422  0.0000000  0.9043911  )
        81           Mg  tau(  81) = (  0.3962582  0.5000000  0.0798642  )
        82           Mg  tau(  82) = (  0.4064895  0.5000000  0.6425668  )
        83           Si  tau(  83) = (  0.4880171  0.5000000  0.6622769  )
        84           Si  tau(  84) = (  0.5021041  0.5000000  0.2133468  )
        85           Al  tau(  85) = (  0.3796910  0.5000000  0.6149787  )
        86           Al  tau(  86) = (  0.5160083  0.0000000  0.3744611  )
        87           Si  tau(  87) = (  0.3925151  0.0000000  0.7744467  )
        88           Si  tau(  88) = (  0.4084462  0.0000000  0.3280067  )
        89           Al  tau(  89) = (  0.5484124  0.0000000  0.7281138  )
        90           Al  tau(  90) = (  0.5428300  0.5000000  0.9993935  )
        91           Al  tau(  91) = (  0.5649512  0.5000000  0.9083677  )
        92           Al  tau(  92) = (  0.5593234  0.0000000  0.1798589  )
        93           Al  tau(  93) = (  0.5814288  0.0000000  0.0899100  )
        94           Al  tau(  94) = (  0.5759106  0.5000000  0.3625488  )
        95           Al  tau(  95) = (  0.5979640  0.5000000  0.2719750  )
        96           Al  tau(  96) = (  0.6144851  0.0000000  0.4541627  )
        97           Al  tau(  97) = (  0.5095266  0.5000000  0.6343407  )
        98           Al  tau(  98) = (  0.5322867  0.5000000  0.5512075  )
        99           Al  tau(  99) = (  0.5254060  0.0000000  0.8175942  )
       100           Al  tau( 100) = (  0.5372075  0.0000000  0.2714225  )
       101           Al  tau( 101) = (  0.5539212  0.5000000  0.4533117  )
       102           Al  tau( 102) = (  0.5703395  0.0000000  0.6349105  )
       103           Al  tau( 103) = (  0.5924279  0.0000000  0.5443941  )
       104           Al  tau( 104) = (  0.5869348  0.5000000  0.8170346  )
       105           Al  tau( 105) = (  0.6089921  0.5000000  0.7268002  )
       106           Al  tau( 106) = (  0.6034599  0.0000000  0.9991334  )
       107           Al  tau( 107) = (  0.6255226  0.0000000  0.9090490  )
       108           Al  tau( 108) = (  0.6200069  0.5000000  0.1816037  )
       109           Al  tau( 109) = (  0.6365445  0.0000000  0.3638215  )
       110           Al  tau( 110) = (  0.5208528  0.5000000  0.0849542  )
       111           Al  tau( 111) = (  0.6696340  0.0000000  0.7282060  )
       112           Al  tau( 112) = (  0.6641206  0.5000000  0.0008470  )
       113           Al  tau( 113) = (  0.6861742  0.5000000  0.9101043  )
       114           Al  tau( 114) = (  0.6806611  0.0000000  0.1828153  )
       115           Al  tau( 115) = (  0.7027072  0.0000000  0.0917916  )
       116           Al  tau( 116) = (  0.6971957  0.5000000  0.3645767  )
       117           Al  tau( 117) = (  0.7192438  0.5000000  0.2734314  )
       118           Al  tau( 118) = (  0.7357875  0.0000000  0.4550656  )
       119           Al  tau( 119) = (  0.6310337  0.5000000  0.6364350  )
       120           Al  tau( 120) = (  0.6530940  0.5000000  0.5460875  )
       121           Al  tau( 121) = (  0.6475720  0.0000000  0.8186820  )
       122           Al  tau( 122) = (  0.6586082  0.0000000  0.2735062  )
       123           Al  tau( 123) = (  0.6751520  0.5000000  0.4555617  )
       124           Al  tau( 124) = (  0.6916852  0.0000000  0.6373538  )
       125           Al  tau( 125) = (  0.7137302  0.0000000  0.5462098  )
       126           Al  tau( 126) = (  0.7082185  0.5000000  0.8190126  )
       127           Al  tau( 127) = (  0.7302719  0.5000000  0.7278496  )
       128           Al  tau( 128) = (  0.7247573  0.0000000  0.0006375  )
       129           Al  tau( 129) = (  0.7468194  0.0000000  0.9094940  )
       130           Al  tau( 130) = (  0.7413033  0.5000000  0.1822778  )
       131           Al  tau( 131) = (  0.7578536  0.0000000  0.3639307  )
       132           Al  tau( 132) = (  0.6420681  0.5000000  0.0913383  )
       133           Al  tau( 133) = (  0.7909703  0.0000000  0.7273281  )
       134           Al  tau( 134) = (  0.7854498  0.5000000  0.0000914  )
       135           Al  tau( 135) = (  0.8075357  0.5000000  0.9090697  )
       136           Al  tau( 136) = (  0.8020139  0.0000000  0.1818187  )
       137           Al  tau( 137) = (  0.8241021  0.0000000  0.0907832  )
       138           Al  tau( 138) = (  0.8185802  0.5000000  0.3635461  )
       139           Al  tau( 139) = (  0.8406732  0.5000000  0.2724661  )
       140           Al  tau( 140) = (  0.8572444  0.0000000  0.4539372  )
       141           Al  tau( 141) = (  0.7523366  0.5000000  0.6367143  )
       142           Al  tau( 142) = (  0.7744092  0.5000000  0.5456126  )
       143           Al  tau( 143) = (  0.7688901  0.0000000  0.8183842  )
       144           Al  tau( 144) = (  0.7799293  0.0000000  0.2728505  )
       145           Al  tau( 145) = (  0.7964925  0.5000000  0.4545841  )
       146           Al  tau( 146) = (  0.8130582  0.0000000  0.6363143  )
       147           Al  tau( 147) = (  0.8351458  0.0000000  0.5452292  )
       148           Al  tau( 148) = (  0.8296270  0.5000000  0.8180376  )
       149           Al  tau( 149) = (  0.8517200  0.5000000  0.7267903  )
       150           Al  tau( 150) = (  0.8461972  0.0000000  0.9996753  )
       151           Al  tau( 151) = (  0.8682901  0.0000000  0.9079571  )
       152           Al  tau( 152) = (  0.8627765  0.5000000  0.1810263  )
       153           Al  tau( 153) = (  0.8793465  0.0000000  0.3618297  )
       154           Al  tau( 154) = (  0.7633718  0.5000000  0.0911558  )
       155           Al  tau( 155) = (  0.9124607  0.0000000  0.7228122  )
       156           Al  tau( 156) = (  0.9069522  0.5000000  0.9961884  )
       157           Al  tau( 157) = (  0.9290257  0.5000000  0.9036451  )
       158           Al  tau( 158) = (  0.9235119  0.0000000  0.1768625  )
       159           Al  tau( 159) = (  0.9455161  0.0000000  0.0839843  )
       160           Al  tau( 160) = (  0.9401331  0.5000000  0.3579005  )
       161           Al  tau( 161) = (  0.9620805  0.5000000  0.2630803  )
       162           Al  tau( 162) = (  0.9782457  0.0000000  0.4385818  )
       163           Al  tau( 163) = (  0.8738229  0.5000000  0.6349728  )
       164           Al  tau( 164) = (  0.8959087  0.5000000  0.5423531  )
       165           Al  tau( 165) = (  0.8903850  0.0000000  0.8154663  )
       166           Al  tau( 166) = (  0.9014149  0.0000000  0.2690334  )
       167           Al  tau( 167) = (  0.9179976  0.5000000  0.4499876  )
       168           Al  tau( 168) = (  0.9345489  0.0000000  0.6305751  )
       169           Al  tau( 169) = (  0.9565752  0.0000000  0.5383263  )
       170           Al  tau( 170) = (  0.9511680  0.5000000  0.8119995  )
       171           Al  tau( 171) = (  0.9733464  0.5000000  0.7188323  )
       172           Al  tau( 172) = (  0.9676793  0.0000000  0.9912038  )
       173           Al  tau( 173) = (  0.9897358  0.0000000  0.9036016  )
       174           Al  tau( 174) = (  0.9851277  0.5000000  0.1713615  )
       175           Al  tau( 175) = (  0.0010704  0.0000000  0.3534497  )
       176           Al  tau( 176) = (  0.8848603  0.5000000  0.0886402  )

     number of k points=   131  Methfessel-Paxton smearing, width (Ry)=  0.0441
                       cart. coord. in units 2pi/alat
        k(    1) = (   0.0000000   0.0000000   0.0000000), wk =   0.0076923
        k(    2) = (   0.0000000   0.0000000   1.4931606), wk =   0.0153846
        k(    3) = (   0.0000000   0.0000000   2.9863211), wk =   0.0153846
        k(    4) = (   0.0000000   0.0000000   4.4794817), wk =   0.0153846
        k(    5) = (   0.0000000   0.0000000   5.9726423), wk =   0.0153846
        k(    6) = (   0.0000000   0.0000000   7.4658029), wk =   0.0153846
        k(    7) = (   0.0000000   0.0000000   8.9589634), wk =   0.0153846
        k(    8) = (   0.0000000   1.4804961   0.0000000), wk =   0.0153846
        k(    9) = (   0.0000000   1.4804961   1.4931606), wk =   0.0153846
        k(   10) = (   0.0000000   1.4804961   2.9863211), wk =   0.0153846
        k(   11) = (   0.0000000   1.4804961   4.4794817), wk =   0.0153846
        k(   12) = (   0.0000000   1.4804961   5.9726423), wk =   0.0153846
        k(   13) = (   0.0000000   1.4804961   7.4658029), wk =   0.0153846
        k(   14) = (   0.0000000   1.4804961   8.9589634), wk =   0.0153846
        k(   15) = (   0.0000000   1.4804961  -8.9589634), wk =   0.0153846
        k(   16) = (   0.0000000   1.4804961  -7.4658029), wk =   0.0153846
        k(   17) = (   0.0000000   1.4804961  -5.9726423), wk =   0.0153846
        k(   18) = (   0.0000000   1.4804961  -4.4794817), wk =   0.0153846
        k(   19) = (   0.0000000   1.4804961  -2.9863211), wk =   0.0153846
        k(   20) = (   0.0000000   1.4804961  -1.4931606), wk =   0.0153846
        k(   21) = (   0.0000000   2.9609922   0.0000000), wk =   0.0153846
        k(   22) = (   0.0000000   2.9609922   1.4931606), wk =   0.0153846
        k(   23) = (   0.0000000   2.9609922   2.9863211), wk =   0.0153846
        k(   24) = (   0.0000000   2.9609922   4.4794817), wk =   0.0153846
        k(   25) = (   0.0000000   2.9609922   5.9726423), wk =   0.0153846
        k(   26) = (   0.0000000   2.9609922   7.4658029), wk =   0.0153846
        k(   27) = (   0.0000000   2.9609922   8.9589634), wk =   0.0153846
        k(   28) = (   0.0000000   2.9609922  -8.9589634), wk =   0.0153846
        k(   29) = (   0.0000000   2.9609922  -7.4658029), wk =   0.0153846
        k(   30) = (   0.0000000   2.9609922  -5.9726423), wk =   0.0153846
        k(   31) = (   0.0000000   2.9609922  -4.4794817), wk =   0.0153846
        k(   32) = (   0.0000000   2.9609922  -2.9863211), wk =   0.0153846
        k(   33) = (   0.0000000   2.9609922  -1.4931606), wk =   0.0153846
        k(   34) = (   0.0000000   4.4414882   0.0000000), wk =   0.0153846
        k(   35) = (   0.0000000   4.4414882   1.4931606), wk =   0.0153846
        k(   36) = (   0.0000000   4.4414882   2.9863211), wk =   0.0153846
        k(   37) = (   0.0000000   4.4414882   4.4794817), wk =   0.0153846
        k(   38) = (   0.0000000   4.4414882   5.9726423), wk =   0.0153846
        k(   39) = (   0.0000000   4.4414882   7.4658029), wk =   0.0153846
        k(   40) = (   0.0000000   4.4414882   8.9589634), wk =   0.0153846
        k(   41) = (   0.0000000   4.4414882  -8.9589634), wk =   0.0153846
        k(   42) = (   0.0000000   4.4414882  -7.4658029), wk =   0.0153846
        k(   43) = (   0.0000000   4.4414882  -5.9726423), wk =   0.0153846
        k(   44) = (   0.0000000   4.4414882  -4.4794817), wk =   0.0153846
        k(   45) = (   0.0000000   4.4414882  -2.9863211), wk =   0.0153846
        k(   46) = (   0.0000000   4.4414882  -1.4931606), wk =   0.0153846
        k(   47) = (   0.0000000   5.9219843   0.0000000), wk =   0.0153846
        k(   48) = (   0.0000000   5.9219843   1.4931606), wk =   0.0153846
        k(   49) = (   0.0000000   5.9219843   2.9863211), wk =   0.0153846
        k(   50) = (   0.0000000   5.9219843   4.4794817), wk =   0.0153846
        k(   51) = (   0.0000000   5.9219843   5.9726423), wk =   0.0153846
        k(   52) = (   0.0000000   5.9219843   7.4658029), wk =   0.0153846
        k(   53) = (   0.0000000   5.9219843   8.9589634), wk =   0.0153846
        k(   54) = (   0.0000000   5.9219843  -8.9589634), wk =   0.0153846
        k(   55) = (   0.0000000   5.9219843  -7.4658029), wk =   0.0153846
        k(   56) = (   0.0000000   5.9219843  -5.9726423), wk =   0.0153846
        k(   57) = (   0.0000000   5.9219843  -4.4794817), wk =   0.0153846
        k(   58) = (   0.0000000   5.9219843  -2.9863211), wk =   0.0153846
        k(   59) = (   0.0000000   5.9219843  -1.4931606), wk =   0.0153846
        k(   60) = (   0.0000000   7.4024804   0.0000000), wk =   0.0153846
        k(   61) = (   0.0000000   7.4024804   1.4931606), wk =   0.0153846
        k(   62) = (   0.0000000   7.4024804   2.9863211), wk =   0.0153846
        k(   63) = (   0.0000000   7.4024804   4.4794817), wk =   0.0153846
        k(   64) = (   0.0000000   7.4024804   5.9726423), wk =   0.0153846
        k(   65) = (   0.0000000   7.4024804   7.4658029), wk =   0.0153846
        k(   66) = (   0.0000000   7.4024804   8.9589634), wk =   0.0153846
        k(   67) = (   0.0000000   7.4024804  -8.9589634), wk =   0.0153846
        k(   68) = (   0.0000000   7.4024804  -7.4658029), wk =   0.0153846
        k(   69) = (   0.0000000   7.4024804  -5.9726423), wk =   0.0153846
        k(   70) = (   0.0000000   7.4024804  -4.4794817), wk =   0.0153846
        k(   71) = (   0.0000000   7.4024804  -2.9863211), wk =   0.0153846
        k(   72) = (   0.0000000   7.4024804  -1.4931606), wk =   0.0153846
        k(   73) = (   0.0000000   8.8829765   0.0000000), wk =   0.0153846
        k(   74) = (   0.0000000   8.8829765   1.4931606), wk =   0.0153846
        k(   75) = (   0.0000000   8.8829765   2.9863211), wk =   0.0153846
        k(   76) = (   0.0000000   8.8829765   4.4794817), wk =   0.0153846
        k(   77) = (   0.0000000   8.8829765   5.9726423), wk =   0.0153846
        k(   78) = (   0.0000000   8.8829765   7.4658029), wk =   0.0153846
        k(   79) = (   0.0000000   8.8829765   8.9589634), wk =   0.0153846
        k(   80) = (   0.0000000   8.8829765  -8.9589634), wk =   0.0153846
        k(   81) = (   0.0000000   8.8829765  -7.4658029), wk =   0.0153846
        k(   82) = (   0.0000000   8.8829765  -5.9726423), wk =   0.0153846
        k(   83) = (   0.0000000   8.8829765  -4.4794817), wk =   0.0153846
        k(   84) = (   0.0000000   8.8829765  -2.9863211), wk =   0.0153846
        k(   85) = (   0.0000000   8.8829765  -1.4931606), wk =   0.0153846
        k(   86) = (   0.0000000  10.3634726   0.0000000), wk =   0.0153846
        k(   87) = (   0.0000000  10.3634726   1.4931606), wk =   0.0153846
        k(   88) = (   0.0000000  10.3634726   2.9863211), wk =   0.0153846
        k(   89) = (   0.0000000  10.3634726   4.4794817), wk =   0.0153846
        k(   90) = (   0.0000000  10.3634726   5.9726423), wk =   0.0153846
        k(   91) = (   0.0000000  10.3634726   7.4658029), wk =   0.0153846
        k(   92) = (   0.0000000  10.3634726   8.9589634), wk =   0.0153846
        k(   93) = (   0.0000000  10.3634726  -8.9589634), wk =   0.0153846
        k(   94) = (   0.0000000  10.3634726  -7.4658029), wk =   0.0153846
        k(   95) = (   0.0000000  10.3634726  -5.9726423), wk =   0.0153846
        k(   96) = (   0.0000000  10.3634726  -4.4794817), wk =   0.0153846
        k(   97) = (   0.0000000  10.3634726  -2.9863211), wk =   0.0153846
        k(   98) = (   0.0000000  10.3634726  -1.4931606), wk =   0.0153846
        k(   99) = (   0.0000000  11.8439686   0.0000000), wk =   0.0153846
        k(  100) = (   0.0000000  11.8439686   1.4931606), wk =   0.0153846
        k(  101) = (   0.0000000  11.8439686   2.9863211), wk =   0.0153846
        k(  102) = (   0.0000000  11.8439686   4.4794817), wk =   0.0153846
        k(  103) = (   0.0000000  11.8439686   5.9726423), wk =   0.0153846
        k(  104) = (   0.0000000  11.8439686   7.4658029), wk =   0.0153846
        k(  105) = (   0.0000000  11.8439686   8.9589634), wk =   0.0153846
        k(  106) = (   0.0000000  11.8439686  -8.9589634), wk =   0.0153846
        k(  107) = (   0.0000000  11.8439686  -7.4658029), wk =   0.0153846
        k(  108) = (   0.0000000  11.8439686  -5.9726423), wk =   0.0153846
        k(  109) = (   0.0000000  11.8439686  -4.4794817), wk =   0.0153846
        k(  110) = (   0.0000000  11.8439686  -2.9863211), wk =   0.0153846
        k(  111) = (   0.0000000  11.8439686  -1.4931606), wk =   0.0153846
        k(  112) = (   0.0000000  13.3244647   0.0000000), wk =   0.0153846
        k(  113) = (   0.0000000  13.3244647   1.4931606), wk =   0.0153846
        k(  114) = (   0.0000000  13.3244647   2.9863211), wk =   0.0153846
        k(  115) = (   0.0000000  13.3244647   4.4794817), wk =   0.0153846
        k(  116) = (   0.0000000  13.3244647   5.9726423), wk =   0.0153846
        k(  117) = (   0.0000000  13.3244647   7.4658029), wk =   0.0153846
        k(  118) = (   0.0000000  13.3244647   8.9589634), wk =   0.0153846
        k(  119) = (   0.0000000  13.3244647  -8.9589634), wk =   0.0153846
        k(  120) = (   0.0000000  13.3244647  -7.4658029), wk =   0.0153846
        k(  121) = (   0.0000000  13.3244647  -5.9726423), wk =   0.0153846
        k(  122) = (   0.0000000  13.3244647  -4.4794817), wk =   0.0153846
        k(  123) = (   0.0000000  13.3244647  -2.9863211), wk =   0.0153846
        k(  124) = (   0.0000000  13.3244647  -1.4931606), wk =   0.0153846
        k(  125) = (   0.0000000 -14.8049608   0.0000000), wk =   0.0076923
        k(  126) = (   0.0000000 -14.8049608   1.4931606), wk =   0.0153846
        k(  127) = (   0.0000000 -14.8049608   2.9863211), wk =   0.0153846
        k(  128) = (   0.0000000 -14.8049608   4.4794817), wk =   0.0153846
        k(  129) = (   0.0000000 -14.8049608   5.9726423), wk =   0.0153846
        k(  130) = (   0.0000000 -14.8049608   7.4658029), wk =   0.0153846
        k(  131) = (   0.0000000 -14.8049608   8.9589634), wk =   0.0153846

                       cryst. coord.
        k(    1) = (   0.0000000   0.0000000   0.0000000), wk =   0.0076923
        k(    2) = (   0.0000000   0.0000000   0.0769231), wk =   0.0153846
        k(    3) = (   0.0000000   0.0000000   0.1538462), wk =   0.0153846
        k(    4) = (   0.0000000   0.0000000   0.2307692), wk =   0.0153846
        k(    5) = (   0.0000000   0.0000000   0.3076923), wk =   0.0153846
        k(    6) = (   0.0000000   0.0000000   0.3846154), wk =   0.0153846
        k(    7) = (   0.0000000   0.0000000   0.4615385), wk =   0.0153846
        k(    8) = (   0.0000000   0.0500000   0.0000000), wk =   0.0153846
        k(    9) = (   0.0000000   0.0500000   0.0769231), wk =   0.0153846
        k(   10) = (   0.0000000   0.0500000   0.1538462), wk =   0.0153846
        k(   11) = (   0.0000000   0.0500000   0.2307692), wk =   0.0153846
        k(   12) = (   0.0000000   0.0500000   0.3076923), wk =   0.0153846
        k(   13) = (   0.0000000   0.0500000   0.3846154), wk =   0.0153846
        k(   14) = (   0.0000000   0.0500000   0.4615385), wk =   0.0153846
        k(   15) = (   0.0000000   0.0500000  -0.4615385), wk =   0.0153846
        k(   16) = (   0.0000000   0.0500000  -0.3846154), wk =   0.0153846
        k(   17) = (   0.0000000   0.0500000  -0.3076923), wk =   0.0153846
        k(   18) = (   0.0000000   0.0500000  -0.2307692), wk =   0.0153846
        k(   19) = (   0.0000000   0.0500000  -0.1538462), wk =   0.0153846
        k(   20) = (   0.0000000   0.0500000  -0.0769231), wk =   0.0153846
        k(   21) = (   0.0000000   0.1000000   0.0000000), wk =   0.0153846
        k(   22) = (   0.0000000   0.1000000   0.0769231), wk =   0.0153846
        k(   23) = (   0.0000000   0.1000000   0.1538462), wk =   0.0153846
        k(   24) = (   0.0000000   0.1000000   0.2307692), wk =   0.0153846
        k(   25) = (   0.0000000   0.1000000   0.3076923), wk =   0.0153846
        k(   26) = (   0.0000000   0.1000000   0.3846154), wk =   0.0153846
        k(   27) = (   0.0000000   0.1000000   0.4615385), wk =   0.0153846
        k(   28) = (   0.0000000   0.1000000  -0.4615385), wk =   0.0153846
        k(   29) = (   0.0000000   0.1000000  -0.3846154), wk =   0.0153846
        k(   30) = (   0.0000000   0.1000000  -0.3076923), wk =   0.0153846
        k(   31) = (   0.0000000   0.1000000  -0.2307692), wk =   0.0153846
        k(   32) = (   0.0000000   0.1000000  -0.1538462), wk =   0.0153846
        k(   33) = (   0.0000000   0.1000000  -0.0769231), wk =   0.0153846
        k(   34) = (   0.0000000   0.1500000   0.0000000), wk =   0.0153846
        k(   35) = (   0.0000000   0.1500000   0.0769231), wk =   0.0153846
        k(   36) = (   0.0000000   0.1500000   0.1538462), wk =   0.0153846
        k(   37) = (   0.0000000   0.1500000   0.2307692), wk =   0.0153846
        k(   38) = (   0.0000000   0.1500000   0.3076923), wk =   0.0153846
        k(   39) = (   0.0000000   0.1500000   0.3846154), wk =   0.0153846
        k(   40) = (   0.0000000   0.1500000   0.4615385), wk =   0.0153846
        k(   41) = (   0.0000000   0.1500000  -0.4615385), wk =   0.0153846
        k(   42) = (   0.0000000   0.1500000  -0.3846154), wk =   0.0153846
        k(   43) = (   0.0000000   0.1500000  -0.3076923), wk =   0.0153846
        k(   44) = (   0.0000000   0.1500000  -0.2307692), wk =   0.0153846
        k(   45) = (   0.0000000   0.1500000  -0.1538462), wk =   0.0153846
        k(   46) = (   0.0000000   0.1500000  -0.0769231), wk =   0.0153846
        k(   47) = (   0.0000000   0.2000000   0.0000000), wk =   0.0153846
        k(   48) = (   0.0000000   0.2000000   0.0769231), wk =   0.0153846
        k(   49) = (   0.0000000   0.2000000   0.1538462), wk =   0.0153846
        k(   50) = (   0.0000000   0.2000000   0.2307692), wk =   0.0153846
        k(   51) = (   0.0000000   0.2000000   0.3076923), wk =   0.0153846
        k(   52) = (   0.0000000   0.2000000   0.3846154), wk =   0.0153846
        k(   53) = (   0.0000000   0.2000000   0.4615385), wk =   0.0153846
        k(   54) = (   0.0000000   0.2000000  -0.4615385), wk =   0.0153846
        k(   55) = (   0.0000000   0.2000000  -0.3846154), wk =   0.0153846
        k(   56) = (   0.0000000   0.2000000  -0.3076923), wk =   0.0153846
        k(   57) = (   0.0000000   0.2000000  -0.2307692), wk =   0.0153846
        k(   58) = (   0.0000000   0.2000000  -0.1538462), wk =   0.0153846
        k(   59) = (   0.0000000   0.2000000  -0.0769231), wk =   0.0153846
        k(   60) = (   0.0000000   0.2500000   0.0000000), wk =   0.0153846
        k(   61) = (   0.0000000   0.2500000   0.0769231), wk =   0.0153846
        k(   62) = (   0.0000000   0.2500000   0.1538462), wk =   0.0153846
        k(   63) = (   0.0000000   0.2500000   0.2307692), wk =   0.0153846
        k(   64) = (   0.0000000   0.2500000   0.3076923), wk =   0.0153846
        k(   65) = (   0.0000000   0.2500000   0.3846154), wk =   0.0153846
        k(   66) = (   0.0000000   0.2500000   0.4615385), wk =   0.0153846
        k(   67) = (   0.0000000   0.2500000  -0.4615385), wk =   0.0153846
        k(   68) = (   0.0000000   0.2500000  -0.3846154), wk =   0.0153846
        k(   69) = (   0.0000000   0.2500000  -0.3076923), wk =   0.0153846
        k(   70) = (   0.0000000   0.2500000  -0.2307692), wk =   0.0153846
        k(   71) = (   0.0000000   0.2500000  -0.1538462), wk =   0.0153846
        k(   72) = (   0.0000000   0.2500000  -0.0769231), wk =   0.0153846
        k(   73) = (   0.0000000   0.3000000   0.0000000), wk =   0.0153846
        k(   74) = (   0.0000000   0.3000000   0.0769231), wk =   0.0153846
        k(   75) = (   0.0000000   0.3000000   0.1538462), wk =   0.0153846
        k(   76) = (   0.0000000   0.3000000   0.2307692), wk =   0.0153846
        k(   77) = (   0.0000000   0.3000000   0.3076923), wk =   0.0153846
        k(   78) = (   0.0000000   0.3000000   0.3846154), wk =   0.0153846
        k(   79) = (   0.0000000   0.3000000   0.4615385), wk =   0.0153846
        k(   80) = (   0.0000000   0.3000000  -0.4615385), wk =   0.0153846
        k(   81) = (   0.0000000   0.3000000  -0.3846154), wk =   0.0153846
        k(   82) = (   0.0000000   0.3000000  -0.3076923), wk =   0.0153846
        k(   83) = (   0.0000000   0.3000000  -0.2307692), wk =   0.0153846
        k(   84) = (   0.0000000   0.3000000  -0.1538462), wk =   0.0153846
        k(   85) = (   0.0000000   0.3000000  -0.0769231), wk =   0.0153846
        k(   86) = (   0.0000000   0.3500000   0.0000000), wk =   0.0153846
        k(   87) = (   0.0000000   0.3500000   0.0769231), wk =   0.0153846
        k(   88) = (   0.0000000   0.3500000   0.1538462), wk =   0.0153846
        k(   89) = (   0.0000000   0.3500000   0.2307692), wk =   0.0153846
        k(   90) = (   0.0000000   0.3500000   0.3076923), wk =   0.0153846
        k(   91) = (   0.0000000   0.3500000   0.3846154), wk =   0.0153846
        k(   92) = (   0.0000000   0.3500000   0.4615385), wk =   0.0153846
        k(   93) = (   0.0000000   0.3500000  -0.4615385), wk =   0.0153846
        k(   94) = (   0.0000000   0.3500000  -0.3846154), wk =   0.0153846
        k(   95) = (   0.0000000   0.3500000  -0.3076923), wk =   0.0153846
        k(   96) = (   0.0000000   0.3500000  -0.2307692), wk =   0.0153846
        k(   97) = (   0.0000000   0.3500000  -0.1538462), wk =   0.0153846
        k(   98) = (   0.0000000   0.3500000  -0.0769231), wk =   0.0153846
        k(   99) = (   0.0000000   0.4000000   0.0000000), wk =   0.0153846
        k(  100) = (   0.0000000   0.4000000   0.0769231), wk =   0.0153846
        k(  101) = (   0.0000000   0.4000000   0.1538462), wk =   0.0153846
        k(  102) = (   0.0000000   0.4000000   0.2307692), wk =   0.0153846
        k(  103) = (   0.0000000   0.4000000   0.3076923), wk =   0.0153846
        k(  104) = (   0.0000000   0.4000000   0.3846154), wk =   0.0153846
        k(  105) = (   0.0000000   0.4000000   0.4615385), wk =   0.0153846
        k(  106) = (   0.0000000   0.4000000  -0.4615385), wk =   0.0153846
        k(  107) = (   0.0000000   0.4000000  -0.3846154), wk =   0.0153846
        k(  108) = (   0.0000000   0.4000000  -0.3076923), wk =   0.0153846
        k(  109) = (   0.0000000   0.4000000  -0.2307692), wk =   0.0153846
        k(  110) = (   0.0000000   0.4000000  -0.1538462), wk =   0.0153846
        k(  111) = (   0.0000000   0.4000000  -0.0769231), wk =   0.0153846
        k(  112) = (   0.0000000   0.4500000   0.0000000), wk =   0.0153846
        k(  113) = (   0.0000000   0.4500000   0.0769231), wk =   0.0153846
        k(  114) = (   0.0000000   0.4500000   0.1538462), wk =   0.0153846
        k(  115) = (   0.0000000   0.4500000   0.2307692), wk =   0.0153846
        k(  116) = (   0.0000000   0.4500000   0.3076923), wk =   0.0153846
        k(  117) = (   0.0000000   0.4500000   0.3846154), wk =   0.0153846
        k(  118) = (   0.0000000   0.4500000   0.4615385), wk =   0.0153846
        k(  119) = (   0.0000000   0.4500000  -0.4615385), wk =   0.0153846
        k(  120) = (   0.0000000   0.4500000  -0.3846154), wk =   0.0153846
        k(  121) = (   0.0000000   0.4500000  -0.3076923), wk =   0.0153846
        k(  122) = (   0.0000000   0.4500000  -0.2307692), wk =   0.0153846
        k(  123) = (   0.0000000   0.4500000  -0.1538462), wk =   0.0153846
        k(  124) = (   0.0000000   0.4500000  -0.0769231), wk =   0.0153846
        k(  125) = (   0.0000000  -0.5000000   0.0000000), wk =   0.0076923
        k(  126) = (   0.0000000  -0.5000000   0.0769231), wk =   0.0153846
        k(  127) = (   0.0000000  -0.5000000   0.1538462), wk =   0.0153846
        k(  128) = (   0.0000000  -0.5000000   0.2307692), wk =   0.0153846
        k(  129) = (   0.0000000  -0.5000000   0.3076923), wk =   0.0153846
        k(  130) = (   0.0000000  -0.5000000   0.3846154), wk =   0.0153846
        k(  131) = (   0.0000000  -0.5000000   0.4615385), wk =   0.0153846

     Dense  grid:  2750475 G-vectors     FFT dimensions: (1458,  50,  80)

     Smooth grid:   696117 G-vectors     FFT dimensions: ( 960,  32,  50)

     Dynamical RAM for                 wfc:      46.73 MB

     Dynamical RAM for     wfc (w. buffer):    1588.84 MB

     Dynamical RAM for           str. fact:      13.99 MB

     Dynamical RAM for           local pot:       0.00 MB

     Dynamical RAM for          nlocal pot:     419.84 MB

     Dynamical RAM for                qrad:     173.67 MB

     Dynamical RAM for          rho,v,vnew:      29.01 MB

     Dynamical RAM for               rhoin:       9.67 MB

     Dynamical RAM for            rho*nmix:      74.61 MB

     Dynamical RAM for           G-vectors:      18.08 MB

     Dynamical RAM for          h,s,v(r/c):      18.40 MB

     Dynamical RAM for          <psi|beta>:      13.78 MB

     Dynamical RAM for                 psi:     186.92 MB

     Dynamical RAM for                hpsi:     186.92 MB

     Dynamical RAM for                spsi:     186.92 MB

     Dynamical RAM for      wfcinit/wfcrot:     218.91 MB

     Dynamical RAM for           addusdens:     350.91 MB

     Dynamical RAM for          addusforce:     833.07 MB

     Dynamical RAM for         addusstress:     236.07 MB

     Estimated static dynamical RAM per process >       2.32 GB

     Estimated max dynamical RAM per process >       3.13 GB

     Estimated total dynamical RAM >     112.66 GB

     Initial potential from superposition of free atoms

     starting charge  527.69604, renormalised to  528.00000
     Starting wfcs are  704 randomized atomic wfcs
