begin
comment 256 atoms, species Al254MgSi
lattice     30.6664728719     0.0000000000     0.0000000000
lattice      0.0000000000    30.6664728719     0.0000000000
lattice      0.0000000000     0.0000000000    30.6664728719
atom      0.0000000000     0.0000000000     0.0000000000   Mg  0.0 0.0    9.99999925e-09 -9.99999925e-09 -4.99999962e-09
atom      3.8786126894     0.0000000000     3.8786126894   Al  0.0 0.0   -1.70619987e-04  4.99999962e-09 -1.70549987e-04
atom      3.8786126894     3.8786126894     0.0000000000   Al  0.0 0.0   -1.70589987e-04 -1.70534987e-04 -9.99999925e-09
atom      0.0000000000     3.8786126894     3.8786126894   Al  0.0 0.0    2.99999977e-08 -1.70584987e-04 -1.70524987e-04
atom      0.0000000000     0.0000000000     7.6713776546   Al  0.0 0.0    9.99999925e-09  3.99999970e-08  2.13499984e-05
atom      3.8360414917     3.8360414917     7.6755329616   Al  0.0 0.0    1.71374987e-04  1.71409987e-04  3.35614975e-04
atom      3.8328981783     0.0000000000    11.5024481110   Al  0.0 0.0   -5.36499960e-06 -2.99999977e-08  1.01239992e-04
atom      0.0000000000     3.8328981783    11.5024481110   Al  0.0 0.0    1.49999989e-08 -5.35499960e-06  1.01244992e-04
atom      0.0000000000     0.0000000000    15.3332364360   Al  0.0 0.0    1.49999989e-08 -1.49999989e-08 -4.99999962e-09
atom      3.8328889783     3.8328889783    15.3332364360   Al  0.0 0.0    5.71299957e-05  5.72049957e-05 -2.49999981e-08
atom      3.8328981783     0.0000000000    19.1640247609   Al  0.0 0.0   -5.37499960e-06  9.99999925e-09 -1.01244992e-04
atom      0.0000000000     3.8328981783    19.1640247609   Al  0.0 0.0   -4.99999962e-09 -5.32499960e-06 -1.01284992e-04
atom      0.0000000000     0.0000000000    22.9950952173   Al  0.0 0.0    4.99999962e-09 -2.99999977e-08 -2.13299984e-05
atom      3.8360414917     3.8360414917    22.9909399103   Al  0.0 0.0    1.71459987e-04  1.71364987e-04 -3.35639975e-04
atom      3.8786126894     0.0000000000    26.7878601825   Al  0.0 0.0   -1.70664987e-04  2.49999981e-08  1.70544987e-04
atom      0.0000000000     3.8786126894    26.7878601825   Al  0.0 0.0    4.99999962e-09 -1.70654987e-04  1.70599987e-04
atom      0.0000000000     7.6713776546     0.0000000000   Al  0.0 0.0    4.99999962e-09  2.14049984e-05  2.49999981e-08
atom      3.8328981783    11.5024481110     0.0000000000   Al  0.0 0.0   -5.35999960e-06  1.01264992e-04  2.49999981e-08
atom      3.8360414917     7.6755329616     3.8360414917   Al  0.0 0.0    1.71454987e-04  3.35664975e-04  1.71419987e-04
atom      0.0000000000    11.5024481110     3.8328981783   Al  0.0 0.0   -9.99999925e-09  1.01324992e-04 -5.38499960e-06
atom      0.0000000000     7.6705649930     7.6705649930   Al  0.0 0.0    2.99999977e-08  3.49759974e-04  3.49814974e-04
atom      3.8332385761    11.5001450589     7.6675688786   Al  0.0 0.0    3.56949973e-05  8.61349935e-05  6.07749954e-05
atom      3.8332385761     7.6675688786    11.5001450589   Al  0.0 0.0    3.56699973e-05  6.07249954e-05  8.61349935e-05
atom      0.0000000000    11.4998966605    11.4998966605   Al  0.0 0.0   -2.49999981e-08  6.80949949e-05  6.80799949e-05
atom      0.0000000000     7.6680074092    15.3332364360   Al  0.0 0.0    4.99999962e-09  8.56599936e-05 -3.49999974e-08
atom      3.8349313654    11.5001297257    15.3332364360   Al  0.0 0.0    7.37449945e-05  3.88699971e-05  1.49999989e-08
atom      3.8332385761     7.6675688786    19.1663278130   Al  0.0 0.0    3.56799973e-05  6.07349954e-05 -8.61499935e-05
atom      0.0000000000    11.4998966605    19.1665762114   Al  0.0 0.0   -2.49999981e-08  6.81149949e-05 -6.80599949e-05
atom      0.0000000000     7.6705649930    22.9959078789   Al  0.0 0.0   -2.49999981e-08  3.49829974e-04 -3.49809974e-04
atom      3.8332385761    11.5001450589    22.9989039933   Al  0.0 0.0    3.56449973e-05  8.61799935e-05 -6.06849954e-05
atom      3.8360414917     7.6755329616    26.8304344468   Al  0.0 0.0    1.71429987e-04  3.35604975e-04 -1.71354987e-04
atom      0.0000000000    11.5024481110    26.8335746937   Al  0.0 0.0    0.00000000e+00  1.01274992e-04  5.39499959e-06
atom      0.0000000000    15.3332364360     0.0000000000   Al  0.0 0.0    9.99999925e-09 -1.49999989e-08  0.00000000e+00
atom      3.8328981783    19.1640247609     0.0000000000   Al  0.0 0.0   -5.36999960e-06 -1.01179992e-04 -1.49999989e-08
atom      3.8328889783    15.3332364360     3.8328889783   Al  0.0 0.0    5.71349957e-05 -6.49999951e-08  5.71799957e-05
atom      0.0000000000    19.1640247609     3.8328981783   Al  0.0 0.0   -2.49999981e-08 -1.01189992e-04 -5.41999959e-06
atom      0.0000000000    15.3332364360     7.6680074092   Al  0.0 0.0    0.00000000e+00 -5.49999959e-08  8.56849936e-05
atom      3.8332385761    19.1663278130     7.6675688786   Al  0.0 0.0    3.56749973e-05 -8.60999935e-05  6.07499954e-05
atom      3.8349313654    15.3332364360    11.5001297257   Al  0.0 0.0    7.37549945e-05 -4.49999966e-08  3.88449971e-05
atom      0.0000000000    19.1665762114    11.4998966605   Al  0.0 0.0   -9.99999925e-09 -6.80349949e-05  6.80599949e-05
atom      0.0000000000    15.3332364360    15.3332364360   Al  0.0 0.0   -4.99999962e-09 -2.49999981e-08  9.99999925e-09
atom      3.8349313654    19.1663462129    15.3332364360   Al  0.0 0.0    7.37399945e-05 -3.88749971e-05 -1.99999985e-08
atom      3.8349313654    15.3332364360    19.1663462129   Al  0.0 0.0    7.37149945e-05 -2.99999977e-08 -3.88899971e-05
atom      0.0000000000    19.1665762114    19.1665762114   Al  0.0 0.0   -3.49999974e-08 -6.80399949e-05 -6.80549949e-05
atom      0.0000000000    15.3332364360    22.9984654627   Al  0.0 0.0   -4.99999962e-08 -2.99999977e-08 -8.57149936e-05
atom      3.8332385761    19.1663278130    22.9989039933   Al  0.0 0.0    3.56599973e-05 -8.61149935e-05 -6.07149954e-05
atom      3.8328889783    15.3332364360    26.8335838936   Al  0.0 0.0    5.71349957e-05 -4.49999966e-08 -5.71199957e-05
atom      0.0000000000    19.1640247609    26.8335746937   Al  0.0 0.0   -4.99999962e-09 -1.01249992e-04  5.37999960e-06
atom      0.0000000000    22.9950952173     0.0000000000   Al  0.0 0.0    9.99999925e-09 -2.13999984e-05 -9.99999925e-09
atom      3.8786126894    26.7878601825     0.0000000000   Al  0.0 0.0   -1.70599987e-04  1.70554987e-04  7.49999944e-08
atom      3.8360414917    22.9909399103     3.8360414917   Al  0.0 0.0    1.71424987e-04 -3.35654975e-04  1.71344987e-04
atom      0.0000000000    26.7878601825     3.8786126894   Al  0.0 0.0    1.49999989e-08  1.70689987e-04 -1.70624987e-04
atom      0.0000000000    22.9959078789     7.6705649930   Al  0.0 0.0    9.99999925e-09 -3.49854974e-04  3.49824974e-04
atom      3.8360414917    26.8304344468     7.6755329616   Al  0.0 0.0    1.71449987e-04 -1.71379987e-04  3.35654975e-04
atom      3.8332385761    22.9989039933    11.5001450589   Al  0.0 0.0    3.57099973e-05 -6.07099954e-05  8.61549935e-05
atom      0.0000000000    26.8335746937    11.5024481110   Al  0.0 0.0    2.49999981e-08  5.36999960e-06  1.01289992e-04
atom      0.0000000000    22.9984654627    15.3332364360   Al  0.0 0.0   -1.49999989e-08 -8.56799936e-05  4.99999962e-09
atom      3.8328889783    26.8335838936    15.3332364360   Al  0.0 0.0    5.71449957e-05 -5.71599957e-05 -2.99999977e-08
atom      3.8332385761    22.9989039933    19.1663278130   Al  0.0 0.0    3.56399973e-05 -6.07249954e-05 -8.61299935e-05
atom      0.0000000000    26.8335746937    19.1640247609   Al  0.0 0.0   -2.49999981e-08  5.36499960e-06 -1.01249992e-04
atom      0.0000000000    22.9959078789    22.9959078789   Al  0.0 0.0   -4.49999966e-08 -3.49769974e-04 -3.49819974e-04
atom      3.8360414917    26.8304344468    22.9909399103   Al  0.0 0.0    1.71384987e-04 -1.71439987e-04 -3.35609975e-04
atom      3.8360414917    22.9909399103    26.8304344468   Al  0.0 0.0    1.71434987e-04 -3.35694975e-04 -1.71404987e-04
atom      0.0000000000    26.7878601825    26.7878601825   Al  0.0 0.0    1.49999989e-08  1.70604987e-04  1.70544987e-04
atom      7.6713776546     0.0000000000     0.0000000000   Al  0.0 0.0    2.13549984e-05 -9.99999925e-09  2.99999977e-08
atom     11.5024481110     3.8328981783     0.0000000000   Al  0.0 0.0    1.01309992e-04 -5.28999960e-06  2.49999981e-08
atom     11.5024481110     0.0000000000     3.8328981783   Al  0.0 0.0    1.01314992e-04 -4.99999962e-09 -5.28499960e-06
atom      7.6755329616     3.8360414917     3.8360414917   Al  0.0 0.0    3.35639975e-04  1.71454987e-04  1.71439987e-04
atom      7.6705649930     0.0000000000     7.6705649930   Al  0.0 0.0    3.49829974e-04 -1.49999989e-08  3.49809974e-04
atom     11.5001450589     3.8332385761     7.6675688786   Al  0.0 0.0    8.60849935e-05  3.55949973e-05  6.07499954e-05
atom     11.4998966605     0.0000000000    11.4998966605   Al  0.0 0.0    6.80749949e-05  1.99999985e-08  6.80249949e-05
atom      7.6675688786     3.8332385761    11.5001450589   Al  0.0 0.0    6.07649954e-05  3.56649973e-05  8.60699935e-05
atom      7.6680074092     0.0000000000    15.3332364360   Al  0.0 0.0    8.56299936e-05 -1.49999989e-08 -2.99999977e-08
atom     11.5001297257     3.8349313654    15.3332364360   Al  0.0 0.0    3.89599971e-05  7.37949945e-05 -4.99999962e-08
atom     11.4998966605     0.0000000000    19.1665762114   Al  0.0 0.0    6.80749949e-05 -2.49999981e-08 -6.79949949e-05
atom      7.6675688786     3.8332385761    19.1663278130   Al  0.0 0.0    6.06899954e-05  3.56599973e-05 -8.60749935e-05
atom      7.6705649930     0.0000000000    22.9959078789   Al  0.0 0.0    3.49819974e-04  3.99999970e-08 -3.49794974e-04
atom     11.5001450589     3.8332385761    22.9989039933   Al  0.0 0.0    8.61399935e-05  3.56099973e-05 -6.06849954e-05
atom     11.5024481110     0.0000000000    26.8335746937   Al  0.0 0.0    1.01304992e-04 -3.99999970e-08  5.28499960e-06
atom      7.6755329616     3.8360414917    26.8304344468   Al  0.0 0.0    3.35594975e-04  1.71434987e-04 -1.71439987e-04
atom      7.6705649930     7.6705649930     0.0000000000   Al  0.0 0.0    3.49799974e-04  3.49779974e-04 -0.00000000e+00
atom     11.4998966605    11.4998966605     0.0000000000   Al  0.0 0.0    6.81299949e-05  6.80699949e-05  2.49999981e-08
atom     11.5001450589     7.6675688786     3.8332385761   Al  0.0 0.0    8.60899935e-05  6.07199954e-05  3.56249973e-05
atom      7.6675688786    11.5001450589     3.8332385761   Al  0.0 0.0    6.07199954e-05  8.60749935e-05  3.56399973e-05
atom      7.6656246243     7.6656246243     7.6656246243   Al  0.0 0.0   -4.44999967e-06 -4.42999967e-06 -4.44999967e-06
atom     11.4999794600    11.4999794600     7.6688967369   Al  0.0 0.0    6.12299954e-05  6.12149954e-05  1.45979989e-04
atom     11.4999794600     7.6688967369    11.4999794600   Al  0.0 0.0    6.11449954e-05  1.45974989e-04  6.12299954e-05
atom      7.6688967369    11.4999794600    11.4999794600   Al  0.0 0.0    1.45969989e-04  6.11799954e-05  6.11799954e-05
atom      7.6707060588     7.6707060588    15.3332364360   Al  0.0 0.0    1.79534987e-04  1.79559987e-04 -2.49999981e-08
atom     11.5223230521    11.5223230521    15.3332364360   Al  0.0 0.0   -3.94549970e-05 -3.94999970e-05 -9.99999925e-09
atom     11.4999794600     7.6688967369    19.1664934119   Al  0.0 0.0    6.12749954e-05  1.45949989e-04 -6.12899954e-05
atom      7.6688967369    11.4999794600    19.1664934119   Al  0.0 0.0    1.45944989e-04  6.12499954e-05 -6.12899954e-05
atom      7.6656246243     7.6656246243    23.0008513143   Al  0.0 0.0   -4.44499967e-06 -4.43499967e-06  4.40499967e-06
atom     11.4999794600    11.4999794600    22.9975761350   Al  0.0 0.0    6.12099954e-05  6.12849954e-05 -1.45954989e-04
atom     11.5001450589     7.6675688786    26.8332342958   Al  0.0 0.0    8.61499935e-05  6.06549954e-05 -3.55699973e-05
atom      7.6675688786    11.5001450589    26.8332342958   Al  0.0 0.0    6.06949954e-05  8.61549935e-05 -3.56599973e-05
atom      7.6680074092    15.3332364360     0.0000000000   Al  0.0 0.0    8.56749936e-05 -4.99999962e-08  0.00000000e+00
atom     11.4998966605    19.1665762114     0.0000000000   Al  0.0 0.0    6.81299949e-05 -6.80049949e-05  1.49999989e-08
atom     11.5001297257    15.3332364360     3.8349313654   Al  0.0 0.0    3.89349971e-05 -7.49999944e-08  7.37549945e-05
atom      7.6675688786    19.1663278130     3.8332385761   Al  0.0 0.0    6.06949954e-05 -8.60749935e-05  3.56499973e-05
atom      7.6707060588    15.3332364360     7.6707060588   Al  0.0 0.0    1.79509987e-04  4.99999962e-09  1.79539987e-04
atom     11.4999794600    19.1664934119     7.6688967369   Al  0.0 0.0    6.11899954e-05 -6.12699954e-05  1.45954989e-04
atom     11.5223230521    15.3332364360    11.5223230521   Al  0.0 0.0   -3.94399970e-05 -4.99999962e-08 -3.94849970e-05
atom      7.6688967369    19.1664934119    11.4999794600   Al  0.0 0.0    1.45904989e-04 -6.12149954e-05  6.11749954e-05
atom      7.6766369547    15.3332364360    15.3332364360   Al  0.0 0.0    1.01564992e-04 -4.99999962e-08  1.99999985e-08
atom     11.5223230521    19.1441498198    15.3332364360   Al  0.0 0.0   -3.94349970e-05  3.95749970e-05  0.00000000e+00
atom     11.5223230521    15.3332364360    19.1441498198   Al  0.0 0.0   -3.94749970e-05 -2.99999977e-08  3.95099970e-05
atom      7.6688967369    19.1664934119    19.1664934119   Al  0.0 0.0    1.45979989e-04 -6.11599954e-05 -6.12199954e-05
atom      7.6707060588    15.3332364360    22.9957668131   Al  0.0 0.0    1.79499987e-04 -2.99999977e-08 -1.79539987e-04
atom     11.4999794600    19.1664934119    22.9975761350   Al  0.0 0.0    6.12399954e-05 -6.12499954e-05 -1.45954989e-04
atom     11.5001297257    15.3332364360    26.8315415065   Al  0.0 0.0    3.89599971e-05 -9.99999925e-09 -7.37449945e-05
atom      7.6675688786    19.1663278130    26.8332342958   Al  0.0 0.0    6.06999954e-05 -8.60299935e-05 -3.56499973e-05
atom      7.6705649930    22.9959078789     0.0000000000   Al  0.0 0.0    3.49799974e-04 -3.49789974e-04  4.99999962e-09
atom     11.5024481110    26.8335746937     0.0000000000   Al  0.0 0.0    1.01289992e-04  5.28499960e-06  4.99999962e-09
atom     11.5001450589    22.9989039933     3.8332385761   Al  0.0 0.0    8.61049935e-05 -6.06899954e-05  3.55749973e-05
atom      7.6755329616    26.8304344468     3.8360414917   Al  0.0 0.0    3.35614975e-04 -1.71449987e-04  1.71404987e-04
atom      7.6656246243    23.0008513143     7.6656246243   Al  0.0 0.0   -4.45499967e-06  4.39499967e-06 -4.42499967e-06
atom     11.5001450589    26.8332342958     7.6675688786   Al  0.0 0.0    8.61249935e-05 -3.55649973e-05  6.07099954e-05
atom     11.4999794600    22.9975761350    11.4999794600   Al  0.0 0.0    6.12549954e-05 -1.45964989e-04  6.12849954e-05
atom      7.6675688786    26.8332342958    11.5001450589   Al  0.0 0.0    6.06749954e-05 -3.56549973e-05  8.60899935e-05
atom      7.6707060588    22.9957668131    15.3332364360   Al  0.0 0.0    1.79514987e-04 -1.79559987e-04  4.99999962e-09
atom     11.5001297257    26.8315415065    15.3332364360   Al  0.0 0.0    3.89799971e-05 -7.37799945e-05  1.49999989e-08
atom     11.4999794600    22.9975761350    19.1664934119   Al  0.0 0.0    6.11499954e-05 -1.45969989e-04 -6.12849954e-05
atom      7.6675688786    26.8332342958    19.1663278130   Al  0.0 0.0    6.07499954e-05 -3.56699973e-05 -8.60849935e-05
atom      7.6656246243    23.0008513143    23.0008513143   Al  0.0 0.0   -4.41499967e-06  4.45499967e-06  4.43999967e-06
atom     11.5001450589    26.8332342958    22.9989039933   Al  0.0 0.0    8.60749935e-05 -3.56099973e-05 -6.06699954e-05
atom     11.5001450589    22.9989039933    26.8332342958   Al  0.0 0.0    8.60549935e-05 -6.06899954e-05 -3.56299973e-05
atom      7.6755329616    26.8304344468    26.8304344468   Al  0.0 0.0    3.35694975e-04 -1.71504987e-04 -1.71469987e-04
atom     15.3332364360     0.0000000000     0.0000000000   Al  0.0 0.0   -2.99999977e-08 -1.49999989e-08  1.49999989e-08
atom     19.1640247609     3.8328981783     0.0000000000   Al  0.0 0.0   -1.01234992e-04 -5.28499960e-06  2.49999981e-08
atom     19.1640247609     0.0000000000     3.8328981783   Al  0.0 0.0   -1.01234992e-04  4.99999962e-09 -5.32499960e-06
atom     15.3332364360     3.8328889783     3.8328889783   Al  0.0 0.0   -1.49999989e-08  5.71699957e-05  5.71449957e-05
atom     15.3332364360     0.0000000000     7.6680074092   Al  0.0 0.0   -6.49999951e-08 -3.49999974e-08  8.55899936e-05
atom     19.1663278130     3.8332385761     7.6675688786   Al  0.0 0.0   -8.60599935e-05  3.56449973e-05  6.06999954e-05
atom     19.1665762114     0.0000000000    11.4998966605   Al  0.0 0.0   -6.80049949e-05  4.99999962e-09  6.80449949e-05
atom     15.3332364360     3.8349313654    11.5001297257   Al  0.0 0.0   -4.49999966e-08  7.37699945e-05  3.89349971e-05
atom     15.3332364360     0.0000000000    15.3332364360   Al  0.0 0.0   -1.49999989e-08 -1.49999989e-08 -4.99999962e-09
atom     19.1663462129     3.8349313654    15.3332364360   Al  0.0 0.0   -3.89449971e-05  7.38099945e-05 -2.99999977e-08
atom     19.1665762114     0.0000000000    19.1665762114   Al  0.0 0.0   -6.80649949e-05 -6.49999951e-08 -6.80249949e-05
atom     15.3332364360     3.8349313654    19.1663462129   Al  0.0 0.0   -2.49999981e-08  7.37649945e-05 -3.89799971e-05
atom     15.3332364360     0.0000000000    22.9984654627   Al  0.0 0.0   -3.49999974e-08  1.49999989e-08 -8.56399936e-05
atom     19.1663278130     3.8332385761    22.9989039933   Al  0.0 0.0   -8.60149935e-05  3.55899973e-05 -6.06449954e-05
atom     19.1640247609     0.0000000000    26.8335746937   Al  0.0 0.0   -1.01229992e-04 -1.49999989e-08  5.31499960e-06
atom     15.3332364360     3.8328889783    26.8335838936   Al  0.0 0.0   -3.49999974e-08  5.71699957e-05 -5.71599957e-05
atom     15.3332364360     7.6680074092     0.0000000000   Al  0.0 0.0   -2.49999981e-08  8.56799936e-05 -9.99999925e-09
atom     19.1665762114    11.4998966605     0.0000000000   Al  0.0 0.0   -6.80949949e-05  6.80549949e-05  2.49999981e-08
atom     19.1663278130     7.6675688786     3.8332385761   Al  0.0 0.0   -8.60399935e-05  6.06849954e-05  3.56249973e-05
atom     15.3332364360    11.5001297257     3.8349313654   Al  0.0 0.0   -9.99999925e-09  3.89649971e-05  7.36849945e-05
atom     15.3332364360     7.6707060588     7.6707060588   Al  0.0 0.0   -2.99999977e-08  1.79504987e-04  1.79524987e-04
atom     19.1664934119    11.4999794600     7.6688967369   Al  0.0 0.0   -6.11999954e-05  6.12449954e-05  1.45989989e-04
atom     19.1664934119     7.6688967369    11.4999794600   Al  0.0 0.0   -6.11899954e-05  1.45969989e-04  6.12649954e-05
atom     15.3332364360    11.5223230521    11.5223230521   Al  0.0 0.0   -4.99999962e-08 -3.94249970e-05 -3.94249970e-05
atom     15.3332364360     7.6766369547    15.3332364360   Al  0.0 0.0    0.00000000e+00  1.01589992e-04  2.49999981e-08
atom     19.1441498198    11.5223230521    15.3332364360   Al  0.0 0.0    3.94549970e-05 -3.95449970e-05 -1.49999989e-08
atom     19.1664934119     7.6688967369    19.1664934119   Al  0.0 0.0   -6.12349954e-05  1.45954989e-04 -6.13099954e-05
atom     15.3332364360    11.5223230521    19.1441498198   Al  0.0 0.0   -1.49999989e-08 -3.94899970e-05  3.94149970e-05
atom     15.3332364360     7.6707060588    22.9957668131   Al  0.0 0.0   -3.49999974e-08  1.79489987e-04 -1.79534987e-04
atom     19.1664934119    11.4999794600    22.9975761350   Al  0.0 0.0   -6.12249954e-05  6.12649954e-05 -1.45934989e-04
atom     19.1663278130     7.6675688786    26.8332342958   Al  0.0 0.0   -8.60999935e-05  6.06849954e-05 -3.55699973e-05
atom     15.3332364360    11.5001297257    26.8315415065   Al  0.0 0.0   -0.00000000e+00  3.89549971e-05 -7.36899945e-05
atom     15.3332364360    15.3332364360     0.0000000000   Al  0.0 0.0    0.00000000e+00 -2.49999981e-08  4.99999962e-09
atom     19.1665762114    19.1665762114     0.0000000000   Al  0.0 0.0   -6.80999949e-05 -6.80149949e-05 -0.00000000e+00
atom     19.1663462129    15.3332364360     3.8349313654   Al  0.0 0.0   -3.89699971e-05 -5.49999959e-08  7.37149945e-05
atom     15.3332364360    19.1663462129     3.8349313654   Al  0.0 0.0   -4.49999966e-08 -3.89249971e-05  7.36649945e-05
atom     15.3332364360    15.3332364360     7.6766369547   Al  0.0 0.0   -1.49999989e-08 -3.99999970e-08  1.01534992e-04
atom     19.1664934119    19.1664934119     7.6688967369   Al  0.0 0.0   -6.12249954e-05 -6.12549954e-05  1.45969989e-04
atom     19.1441498198    15.3332364360    11.5223230521   Al  0.0 0.0    3.94649970e-05 -3.99999970e-08 -3.94999970e-05
atom     15.3332364360    19.1441498198    11.5223230521   Al  0.0 0.0   -1.99999985e-08  3.95499970e-05 -3.94149970e-05
atom     15.3332364360    15.3332364360    15.3332364360   Si  0.0 0.0    1.49999989e-08 -4.49999966e-08 -2.99999977e-08
atom     19.1441498198    19.1441498198    15.3332364360   Al  0.0 0.0    3.94649970e-05  3.95499970e-05  3.49999974e-08
atom     19.1441498198    15.3332364360    19.1441498198   Al  0.0 0.0    3.94399970e-05 -1.49999989e-08  3.95099970e-05
atom     15.3332364360    19.1441498198    19.1441498198   Al  0.0 0.0   -1.49999989e-08  3.94699970e-05  3.94699970e-05
atom     15.3332364360    15.3332364360    22.9898359172   Al  0.0 0.0   -2.49999981e-08  1.99999985e-08 -1.01549992e-04
atom     19.1664934119    19.1664934119    22.9975761350   Al  0.0 0.0   -6.11999954e-05 -6.12449954e-05 -1.45929989e-04
atom     19.1663462129    15.3332364360    26.8315415065   Al  0.0 0.0   -3.89449971e-05  1.99999985e-08 -7.37349945e-05
atom     15.3332364360    19.1663462129    26.8315415065   Al  0.0 0.0    1.49999989e-08 -3.89699971e-05 -7.37149945e-05
atom     15.3332364360    22.9984654627     0.0000000000   Al  0.0 0.0   -1.49999989e-08 -8.57099936e-05  3.99999970e-08
atom     19.1640247609    26.8335746937     0.0000000000   Al  0.0 0.0   -1.01234992e-04  5.33499960e-06 -0.00000000e+00
atom     19.1663278130    22.9989039933     3.8332385761   Al  0.0 0.0   -8.60799935e-05 -6.06899954e-05  3.55499973e-05
atom     15.3332364360    26.8335838936     3.8328889783   Al  0.0 0.0   -4.49999966e-08 -5.70999957e-05  5.71399957e-05
atom     15.3332364360    22.9957668131     7.6707060588   Al  0.0 0.0   -2.99999977e-08 -1.79564987e-04  1.79509987e-04
atom     19.1663278130    26.8332342958     7.6675688786   Al  0.0 0.0   -8.60499935e-05 -3.55849973e-05  6.06949954e-05
atom     19.1664934119    22.9975761350    11.4999794600   Al  0.0 0.0   -6.12399954e-05 -1.45964989e-04  6.12999954e-05
atom     15.3332364360    26.8315415065    11.5001297257   Al  0.0 0.0   -3.49999974e-08 -7.36849945e-05  3.89699971e-05
atom     15.3332364360    22.9898359172    15.3332364360   Al  0.0 0.0   -3.49999974e-08 -1.01599992e-04 -2.99999977e-08
atom     19.1663462129    26.8315415065    15.3332364360   Al  0.0 0.0   -3.89199971e-05 -7.37599945e-05  9.99999925e-09
atom     19.1664934119    22.9975761350    19.1664934119   Al  0.0 0.0   -6.11599954e-05 -1.46009989e-04 -6.12399954e-05
atom     15.3332364360    26.8315415065    19.1663462129   Al  0.0 0.0   -3.49999974e-08 -7.36949945e-05 -3.89899971e-05
atom     15.3332364360    22.9957668131    22.9957668131   Al  0.0 0.0   -3.49999974e-08 -1.79559987e-04 -1.79534987e-04
atom     19.1663278130    26.8332342958    22.9989039933   Al  0.0 0.0   -8.59999935e-05 -3.55849973e-05 -6.07049954e-05
atom     19.1663278130    22.9989039933    26.8332342958   Al  0.0 0.0   -8.59949935e-05 -6.07349954e-05 -3.55999973e-05
atom     15.3332364360    26.8335838936    26.8335838936   Al  0.0 0.0   -2.99999977e-08 -5.71249957e-05 -5.71349957e-05
atom     22.9950952173     0.0000000000     0.0000000000   Al  0.0 0.0   -2.14049984e-05 -9.99999925e-09  4.99999962e-09
atom     26.7878601825     3.8786126894     0.0000000000   Al  0.0 0.0    1.70589987e-04 -1.70529987e-04 -9.99999925e-09
atom     26.7878601825     0.0000000000     3.8786126894   Al  0.0 0.0    1.70644987e-04 -3.99999970e-08 -1.70519987e-04
atom     22.9909399103     3.8360414917     3.8360414917   Al  0.0 0.0   -3.35694975e-04  1.71479987e-04  1.71434987e-04
atom     22.9959078789     0.0000000000     7.6705649930   Al  0.0 0.0   -3.49799974e-04 -4.99999962e-09  3.49809974e-04
atom     26.8304344468     3.8360414917     7.6755329616   Al  0.0 0.0   -1.71444987e-04  1.71364987e-04  3.35609975e-04
atom     26.8335746937     0.0000000000    11.5024481110   Al  0.0 0.0    5.35499960e-06 -2.49999981e-08  1.01209992e-04
atom     22.9989039933     3.8332385761    11.5001450589   Al  0.0 0.0   -6.07499954e-05  3.56649973e-05  8.60599935e-05
atom     22.9984654627     0.0000000000    15.3332364360   Al  0.0 0.0   -8.56849936e-05 -1.49999989e-08 -1.49999989e-08
atom     26.8335838936     3.8328889783    15.3332364360   Al  0.0 0.0   -5.71249957e-05  5.71999957e-05  9.99999925e-09
atom     26.8335746937     0.0000000000    19.1640247609   Al  0.0 0.0    5.34499960e-06 -9.99999925e-09 -1.01204992e-04
atom     22.9989039933     3.8332385761    19.1663278130   Al  0.0 0.0   -6.06449954e-05  3.56799973e-05 -8.60749935e-05
atom     22.9959078789     0.0000000000    22.9959078789   Al  0.0 0.0   -3.49809974e-04  4.49999966e-08 -3.49754974e-04
atom     26.8304344468     3.8360414917    22.9909399103   Al  0.0 0.0   -1.71474987e-04  1.71374987e-04 -3.35664975e-04
atom     26.7878601825     0.0000000000    26.7878601825   Al  0.0 0.0    1.70609987e-04 -1.49999989e-08  1.70554987e-04
atom     22.9909399103     3.8360414917    26.8304344468   Al  0.0 0.0   -3.35694975e-04  1.71439987e-04 -1.71509987e-04
atom     22.9959078789     7.6705649930     0.0000000000   Al  0.0 0.0   -3.49784974e-04  3.49809974e-04  3.99999970e-08
atom     26.8335746937    11.5024481110     0.0000000000   Al  0.0 0.0    5.39499959e-06  1.01179992e-04  2.99999977e-08
atom     26.8304344468     7.6755329616     3.8360414917   Al  0.0 0.0   -1.71479987e-04  3.35659975e-04  1.71349987e-04
atom     22.9989039933    11.5001450589     3.8332385761   Al  0.0 0.0   -6.06799954e-05  8.60599935e-05  3.56299973e-05
atom     23.0008513143     7.6656246243     7.6656246243   Al  0.0 0.0    4.38999967e-06 -4.46999966e-06 -4.45499967e-06
atom     26.8332342958    11.5001450589     7.6675688786   Al  0.0 0.0   -3.55949973e-05  8.61599935e-05  6.07299954e-05
atom     26.8332342958     7.6675688786    11.5001450589   Al  0.0 0.0   -3.56399973e-05  6.07249954e-05  8.61799935e-05
atom     22.9975761350    11.4999794600    11.4999794600   Al  0.0 0.0   -1.46009989e-04  6.11449954e-05  6.12149954e-05
atom     22.9957668131     7.6707060588    15.3332364360   Al  0.0 0.0   -1.79564987e-04  1.79539987e-04 -2.49999981e-08
atom     26.8315415065    11.5001297257    15.3332364360   Al  0.0 0.0   -7.36999945e-05  3.88749971e-05  1.49999989e-08
atom     26.8332342958     7.6675688786    19.1663278130   Al  0.0 0.0   -3.56699973e-05  6.06999954e-05 -8.61149935e-05
atom     22.9975761350    11.4999794600    19.1664934119   Al  0.0 0.0   -1.45919989e-04  6.12199954e-05 -6.12099954e-05
atom     23.0008513143     7.6656246243    23.0008513143   Al  0.0 0.0    4.43999967e-06 -4.46999966e-06  4.41999967e-06
atom     26.8332342958    11.5001450589    22.9989039933   Al  0.0 0.0   -3.56349973e-05  8.61599935e-05 -6.07399954e-05
atom     26.8304344468     7.6755329616    26.8304344468   Al  0.0 0.0   -1.71469987e-04  3.35609975e-04 -1.71374987e-04
atom     22.9989039933    11.5001450589    26.8332342958   Al  0.0 0.0   -6.06999954e-05  8.61199935e-05 -3.56299973e-05
atom     22.9984654627    15.3332364360     0.0000000000   Al  0.0 0.0   -8.57349936e-05 -2.99999977e-08  9.99999925e-09
atom     26.8335746937    19.1640247609     0.0000000000   Al  0.0 0.0    5.41499959e-06 -1.01199992e-04  4.99999962e-09
atom     26.8335838936    15.3332364360     3.8328889783   Al  0.0 0.0   -5.71049957e-05 -4.49999966e-08  5.71399957e-05
atom     22.9989039933    19.1663278130     3.8332385761   Al  0.0 0.0   -6.07149954e-05 -8.60349935e-05  3.56049973e-05
atom     22.9957668131    15.3332364360     7.6707060588   Al  0.0 0.0   -1.79529987e-04 -4.99999962e-09  1.79544987e-04
atom     26.8332342958    19.1663278130     7.6675688786   Al  0.0 0.0   -3.56099973e-05 -8.61199935e-05  6.07199954e-05
atom     26.8315415065    15.3332364360    11.5001297257   Al  0.0 0.0   -7.36899945e-05 -2.99999977e-08  3.88549971e-05
atom     22.9975761350    19.1664934119    11.4999794600   Al  0.0 0.0   -1.45914989e-04 -6.12299954e-05  6.12199954e-05
atom     22.9898359172    15.3332364360    15.3332364360   Al  0.0 0.0   -1.01549992e-04 -0.00000000e+00 -4.99999962e-09
atom     26.8315415065    19.1663462129    15.3332364360   Al  0.0 0.0   -7.36999945e-05 -3.88849971e-05 -9.99999925e-09
atom     26.8315415065    15.3332364360    19.1663462129   Al  0.0 0.0   -7.37049945e-05 -9.99999925e-09 -3.88649971e-05
atom     22.9975761350    19.1664934119    19.1664934119   Al  0.0 0.0   -1.45984989e-04 -6.11699954e-05 -6.12249954e-05
atom     22.9957668131    15.3332364360    22.9957668131   Al  0.0 0.0   -1.79524987e-04 -2.49999981e-08 -1.79554987e-04
atom     26.8332342958    19.1663278130    22.9989039933   Al  0.0 0.0   -3.56149973e-05 -8.60599935e-05 -6.07099954e-05
atom     26.8335838936    15.3332364360    26.8335838936   Al  0.0 0.0   -5.71049957e-05 -0.00000000e+00 -5.72199957e-05
atom     22.9989039933    19.1663278130    26.8332342958   Al  0.0 0.0   -6.06799954e-05 -8.60049935e-05 -3.56799973e-05
atom     22.9959078789    22.9959078789     0.0000000000   Al  0.0 0.0   -3.49834974e-04 -3.49779974e-04  3.49999974e-08
atom     26.7878601825    26.7878601825     0.0000000000   Al  0.0 0.0    1.70594987e-04  1.70564987e-04  5.99999955e-08
atom     26.8304344468    22.9909399103     3.8360414917   Al  0.0 0.0   -1.71464987e-04 -3.35674975e-04  1.71339987e-04
atom     22.9909399103    26.8304344468     3.8360414917   Al  0.0 0.0   -3.35654975e-04 -1.71444987e-04  1.71409987e-04
atom     23.0008513143    23.0008513143     7.6656246243   Al  0.0 0.0    4.43499967e-06  4.43499967e-06 -4.46499966e-06
atom     26.8304344468    26.8304344468     7.6755329616   Al  0.0 0.0   -1.71474987e-04 -1.71364987e-04  3.35639975e-04