begin
comment 100 atoms, species Al92Mg4Si4
lattice     38.3330918399     0.0000000000     0.0000000000
lattice      0.0000000000     7.6666183680     0.0000000000
lattice      0.0000000000     0.0000000000    38.3330918399
atom      3.7603153105     3.8253704007    38.2539800049   Al  0.0 0.0    1.21824991e-04  7.09999947e-07  9.66999927e-05
atom     38.2783483514     7.6585722520    38.2532363430   Al  0.0 0.0   -1.57349988e-05  3.83999971e-06  2.64379980e-04
atom      3.7542855152     7.6588252504     3.7353221346   Al  0.0 0.0   -7.05599947e-05  3.21999976e-06 -1.54689988e-04
atom     38.2788735148     3.8254279003     3.7393164428   Al  0.0 0.0    2.39499982e-06  1.27999990e-06 -6.72549949e-05
atom      3.7500880416     3.8257077319     7.5564605620   Al  0.0 0.0   -8.52849936e-05  2.60999980e-06 -2.46839981e-04
atom     38.2808975020     7.6588482503     7.5593892102   Al  0.0 0.0   -1.09199992e-05  5.06499962e-06 -1.25864991e-04
atom      3.7311016612     7.6593082474    11.3893519152   Al  0.0 0.0   -1.29834990e-04  3.60999973e-06 -1.21334991e-04
atom     38.2827566570     3.8258150645    11.4038954903   Al  0.0 0.0   -5.79999956e-06  3.04999977e-06  2.14299984e-05
atom      3.7112182865     3.8262712283    15.2633516762   Al  0.0 0.0   -1.42369989e-04  6.14999954e-07 -1.15999991e-05
atom     38.2837073177     7.6593312472    15.2595950332   Al  0.0 0.0   -8.96999933e-06  3.79499971e-06  1.73749987e-05
atom      3.7324816525     7.6592967474    19.1370332725   Al  0.0 0.0   -1.43504989e-04  3.90499971e-06  8.15999939e-05
atom     38.2828409898     3.8258265645    19.1161839039   Al  0.0 0.0   -9.80499926e-06  2.68499980e-06 -1.66749987e-05
atom      3.7521120289     3.8256962319    22.9683721356   Al  0.0 0.0   -9.97999925e-05  2.85999979e-06  1.58819988e-04
atom     38.2809933348     7.6588559169    22.9618555100   Al  0.0 0.0   -9.59999928e-07  5.05999962e-06  5.55599958e-05
atom      3.7555543405     7.6588214171    26.7854970882   Al  0.0 0.0   -6.39949952e-05  2.85499979e-06  1.60074988e-04
atom     38.2796018435     3.8254240670    26.7808971172   Al  0.0 0.0    1.74499987e-06  1.79499987e-06  9.13199931e-05
atom      3.7614921364     3.8253704007    30.5971212422   Al  0.0 0.0    1.18144991e-04  6.94999948e-07 -3.64999973e-05
atom     38.2787585155     7.6585722520    30.5996128931   Al  0.0 0.0   -1.74099987e-05  3.81499971e-06 -2.38439982e-04
atom      3.7589276526     7.6585492521    34.4257001226   Al  0.0 0.0    3.22644976e-04  4.68999965e-06 -2.01999985e-06
atom     38.2785246837     3.8252707346    34.4264361180   Al  0.0 0.0   -5.24149961e-05 -2.75499979e-06 -4.88499963e-06
atom     11.3784691505     3.8259568970    38.2306236521   Al  0.0 0.0   -6.06499954e-06  3.44999974e-07 -9.14399931e-05
atom      7.5632110194     7.6588980833    38.2431394066   Al  0.0 0.0   -2.45949982e-05  2.90499978e-06 -1.17729991e-04
atom     11.3699017044     7.6595459125     3.7049546593   Al  0.0 0.0    4.65199965e-05  3.45999974e-06 -5.02499962e-05
atom      7.5743314494     3.8258418977     3.7374342880   Al  0.0 0.0   -1.92769986e-04  7.89999941e-07 -2.89349978e-04
atom     11.4720862274     3.8269918905     7.6192693329   Al  0.0 0.0    1.53014988e-04 -7.43999944e-06  1.49189989e-04
atom      7.5566675607     7.6594577464     7.5343232014   Al  0.0 0.0   -6.72999949e-05  2.79999979e-06 -9.43899929e-05
atom     11.3297209576     7.6604812400    11.2949835098   Al  0.0 0.0    3.63599973e-05 -1.22999991e-06  1.16274991e-04
atom      7.5496564382     3.8265970596    11.3758471670   Al  0.0 0.0    1.85299986e-04 -2.26999983e-06  1.16664991e-04
atom     11.0450440843     3.8276013866    15.2629031790   Al  0.0 0.0   -6.11149954e-05 -6.85499948e-06  8.58999935e-06
atom      7.4062753414     7.6602167416    15.2643445033   Al  0.0 0.0   -5.64099958e-05 -1.23999991e-06 -1.22099991e-05
atom     11.3352984224     7.6604812400    19.2305966831   Al  0.0 0.0    1.98799985e-05 -1.15499991e-06 -9.30249930e-05
atom      7.5533172484     3.8265778931    19.1527843400   Al  0.0 0.0    1.62369988e-04 -1.79999986e-06 -1.92449986e-04
atom     11.4804696745     3.8270110570    22.9041680401   Al  0.0 0.0    1.51404989e-04 -8.23499938e-06 -1.41274989e-04
atom      7.5619306942     7.6594462465    22.9911573254   Al  0.0 0.0   -1.00744992e-04  2.74499979e-06  1.93449985e-05
atom     11.3756708348     7.6595497458    26.8166235588   Al  0.0 0.0    5.98599955e-05  3.13499976e-06  3.45299974e-05
atom      7.5784982565     3.8258188978    26.7828597715   Al  0.0 0.0   -1.99479985e-04  1.75999987e-06  3.25599976e-04
atom     11.3820456279     3.8259492304    30.6206385940   Al  0.0 0.0   -3.16549976e-05  7.59999943e-07  1.51349989e-04
atom      7.5650395079     7.6588904167    30.6079503406   Al  0.0 0.0   -1.99749985e-05  2.71999980e-06  1.68429987e-04
atom     11.3817427965     7.6591395818    34.4258036220   Al  0.0 0.0    8.22649938e-05  2.35999982e-06  3.76499972e-06
atom      7.5658866692     3.8254470669    34.4254701241   Al  0.0 0.0    1.13494991e-04  4.41999967e-06 -1.06049992e-05
atom     19.0996086750     3.8265433933    38.1762136615   Al  0.0 0.0    4.37999967e-06  1.09999992e-07  4.80949964e-05
atom     15.2163668056     7.6596187454    38.2024756628   Al  0.0 0.0   -6.38499952e-06  2.34999982e-06 -4.34849967e-05
atom     19.1028823210     7.6602972411     3.5387615396   Al  0.0 0.0    4.64949965e-05  7.74999942e-07 -7.52649943e-05
atom     15.2164703049     3.8267312254     3.6849831184   Al  0.0 0.0    3.42449974e-05 -3.06999977e-06  2.78949979e-04
atom     15.1465085790     7.6604735734     7.4689269467   Al  0.0 0.0    7.34699945e-05  2.99999977e-07 -1.70349987e-05
atom     15.1566093487     7.6604774067    23.0568870780   Al  0.0 0.0    3.31049975e-05  7.39999944e-07 -1.04044992e-04
atom     19.1110587695     7.6603164077    26.9843001691   Al  0.0 0.0    3.89249971e-05  6.89999948e-07  9.19449931e-05
atom     15.2259807450     3.8267427254    26.8371240963   Al  0.0 0.0   -3.75599972e-05 -3.25999975e-06 -2.63889980e-04
atom     19.1038176485     3.8265548932    30.6800395531   Al  0.0 0.0   -1.70999987e-06 -6.99999947e-08 -4.17449969e-05
atom     15.2193567867     7.6596149121    30.6515235661   Al  0.0 0.0    4.01499970e-05  2.52999981e-06  6.07599954e-05
atom     19.0988305132     7.6597030782    34.4283336060   Al  0.0 0.0    2.58049981e-05  1.07499992e-06 -1.37999990e-05
atom     15.2316348760     3.8262137287    34.4268041157   Al  0.0 0.0    1.09859992e-04 -1.79999986e-07  2.87499978e-06
atom     26.8235925149     3.8259262305    38.2274880052   Al  0.0 0.0    2.43254982e-04  1.39499990e-06 -9.50249929e-05
atom     22.9840043705     7.6596225787    38.2001910105   Al  0.0 0.0    2.84999979e-05  1.79499987e-06 -9.46499929e-06
atom     26.8429928927     7.6595459125     3.6944245589   Al  0.0 0.0    2.79599979e-05  3.44499974e-06  1.35299990e-05
atom     22.9918549877     3.8267388920     3.6790146560   Al  0.0 0.0   -3.53499973e-06 -3.23499976e-06  3.57104973e-04
atom     26.7524922961     3.8270263902     7.6087468992   Al  0.0 0.0   -1.29399990e-04 -8.95499933e-06  1.50524989e-04
atom     23.0808222605     7.6604735734     7.4605894993   Al  0.0 0.0   -2.81764979e-04  8.99999932e-07  1.14849991e-04
atom     26.9060814952     7.6604965732    11.2836100814   Al  0.0 0.0   -8.87999933e-05 -4.49999966e-08  2.68614980e-04
atom     27.2000733098     3.8276895527    15.2598250318   Al  0.0 0.0    7.07499947e-06 -8.62999935e-06 -2.60299980e-05
atom     26.9100566368     7.6605157398    19.2346676575   Al  0.0 0.0   -1.12499992e-05 -4.79999964e-07 -1.69674987e-04
atom     26.7615005727     3.8270378902    22.9151696374   Al  0.0 0.0   -1.80399986e-04 -8.17999939e-06 -2.83889979e-04
atom     23.0890677086     7.6605080731    23.0621617114   Al  0.0 0.0   -2.95414978e-04  1.94999985e-07 -1.36099990e-04
atom     26.8474931977     7.6595765790    26.8274258241   Al  0.0 0.0    8.76749934e-05  2.90499978e-06  7.16449946e-05
atom     23.0012120954     3.8267542253    26.8455037102   Al  0.0 0.0   -9.60299928e-05 -2.88999978e-06 -3.70589972e-04
atom     26.8273146581     3.8259377304    30.6313258600   Al  0.0 0.0    2.11024984e-04  1.43499989e-06  5.15149961e-05
atom     22.9869981849     7.6596340786    30.6576338609   Al  0.0 0.0    6.65099950e-05  1.75999987e-06  1.97649985e-05
atom     26.8210241977     7.6591204152    34.4293417663   Al  0.0 0.0    9.07649932e-05  2.57999981e-06 -1.82349986e-05
atom     22.9674368082     3.8262098954    34.4295257652   Al  0.0 0.0   -4.36499967e-05  2.14999984e-07 -2.71099980e-05
atom     34.4602305717     3.8253742340    38.2514921873   Al  0.0 0.0   -1.69899987e-04  6.49999951e-07  7.90499941e-05
atom     30.6497909103     7.6588827500    38.2384397695   Al  0.0 0.0    5.48299959e-05  3.02499977e-06 -8.63999935e-05
atom     34.4695340131     7.6588444170     3.7282496792   Al  0.0 0.0    3.09199977e-05  2.37499982e-06 -1.37099990e-04
atom     30.6421434585     3.8258380644     3.7273066851   Al  0.0 0.0    2.57694981e-04  1.06499992e-06 -2.85984979e-04
atom     34.4761004718     3.8257192318     7.5471417873   Al  0.0 0.0    1.11729992e-04  2.47499981e-06 -2.09969984e-04
atom     30.6694941195     7.6594577464     7.5185951338   Al  0.0 0.0    4.41249967e-05  3.53499973e-06  5.06299962e-05
atom     34.5012776465     7.6593274139    11.3780398198   Al  0.0 0.0    1.03159992e-04  4.30999968e-06 -7.52999943e-06
atom     30.6827803692     3.8266430593    11.3631435804   Al  0.0 0.0   -1.77139987e-04 -3.32999975e-06  1.85789986e-04
atom     34.5253201617     3.8263478945    15.2551560612   Al  0.0 0.0    8.89399933e-05 -1.10999992e-06  8.58199935e-05
atom     30.8344184139     7.6602780746    15.2552212274   Al  0.0 0.0   -8.46999936e-06 -3.24999976e-07  8.24749938e-05
atom     34.5023241399     7.6593542471    19.1340892911   Al  0.0 0.0    1.05554992e-04  3.94999970e-06  1.45829989e-04
atom     30.6871925080     3.8266468926    19.1525083417   Al  0.0 0.0   -2.17209984e-04 -2.88499978e-06 -1.69089987e-04
atom     34.4789562871     3.8257537316    22.9718872801   Al  0.0 0.0    6.38849952e-05  1.91999986e-06  1.41834989e-04
atom     30.6735459274     7.6594807463    22.9998091042   Al  0.0 0.0    7.27249945e-05  3.41999974e-06 -5.97749955e-05
atom     34.4708373383     7.6588712501    26.7920443803   Al  0.0 0.0    3.30599975e-05  1.89499986e-06  1.32719990e-04
atom     30.6467855959     3.8258648976    26.7950535280   Al  0.0 0.0    2.09509984e-04  1.01499992e-06  2.55359981e-04
atom     34.4613115649     3.8253780673    30.6025722078   Al  0.0 0.0   -1.71159987e-04  9.69999927e-07 -3.14849976e-05
atom     30.6512437345     7.6588942500    30.6169816170   Al  0.0 0.0    6.21899953e-05  2.94499978e-06  1.23404991e-04
atom     34.4609704004     7.6585492521    34.4277471097   Al  0.0 0.0   -3.49779974e-04  4.85999963e-06 -3.06249977e-05
atom     30.6447041091     3.8254432335    34.4287092703   Al  0.0 0.0    7.99999940e-08  4.23999968e-06 -1.68399987e-05
atom     15.7697394860     3.8282338826    11.9044451702   Mg  0.0 0.0   -1.95539985e-04 -6.47999951e-06  1.38734990e-04
atom     22.4741704157     3.8282415492    11.9000521979   Mg  0.0 0.0    6.15549954e-05 -5.84499956e-06  6.33249952e-05
atom     19.1093951133     3.8275783868     7.1796922689   Al  0.0 0.0    7.12949946e-05 -3.33999975e-06 -1.74379987e-04
atom     19.1168355664     7.6615124001    10.3667016911   Si  0.0 0.0    1.32759990e-04 -8.12999939e-06 -4.05724970e-04
atom     14.2280016988     7.6614395673    15.2619295185   Si  0.0 0.0    7.94149940e-05 -4.23499968e-06 -3.54999973e-07
atom     19.1296694856     7.6627927254    15.2608600253   Al  0.0 0.0   -3.28714975e-04 -1.52599989e-05  1.95799985e-05
atom     15.7764784436     3.8282415492    18.6176083782   Mg  0.0 0.0   -2.10064984e-04 -6.64499950e-06 -1.08299992e-04
atom     22.4833281913     3.8282530492    18.6245888342   Mg  0.0 0.0   -2.47899981e-05 -6.07499954e-06 -6.78749949e-05
atom     24.0185723528     7.6615047335    15.2607526926   Si  0.0 0.0    2.15654984e-04 -5.05499962e-06 -4.44349967e-05
atom     19.1246746837     7.6615162335    20.1552445246   Si  0.0 0.0    8.78949934e-05 -7.60999943e-06  4.40129967e-04
atom     19.1205347098     3.8276013866    23.3434767725   Al  0.0 0.0    1.27299990e-05 -3.88999971e-06  1.34224990e-04
energy -1.907182240289579e+03
charge 0.0000
end
