begin
comment uuid: 2de31ede-4cd9-4681-ab6d-28c194209012 parent_uuid: 46939af9-eee4-4d42-a067-25e919f9bf55 trajectory_step: final_scf
lattice     13.8083230453    -0.0000000005    -0.0000000000
lattice     -6.9041615230    11.9583584228    -0.0000000001
lattice     -0.0000000000     0.0000000001    21.7927464170
atom      3.6212156913     8.1502272658     1.7737014347   Mg  0.0 0.0    2.15848876e-07  8.23199527e-08  3.96356135e-07
atom     -1.9647502982    11.0193097515     1.7737014437   Mg  0.0 0.0   -1.79200267e-07  1.45758295e-07  3.96379859e-07
atom     -1.6564656521     4.7471800818     1.7737014201   Mg  0.0 0.0   -3.66213126e-08 -2.28114554e-07  3.96337314e-07
atom      2.8870296793     3.3581739885     5.4481866958   Mg  0.0 0.0    3.46526594e-07  1.76751539e-07  2.13671619e-14
atom      9.4565441482     0.8211542347     5.4481866958   Mg  0.0 0.0   -3.26309266e-07  2.11711587e-07  2.29531075e-14
atom      8.3689105040     7.7790304536     5.4481866958   Mg  0.0 0.0   -2.01694115e-08 -3.88500522e-07  2.13417854e-14
atom      3.6212156913     8.1502272658     9.1226719568   Mg  0.0 0.0    2.15848719e-07  8.23197690e-08 -3.96356058e-07
atom     -1.9647502982    11.0193097515     9.1226719478   Mg  0.0 0.0   -1.79200039e-07  1.45758246e-07 -3.96379767e-07
atom     -1.6564656521     4.7471800818     9.1226719714   Mg  0.0 0.0   -3.66213919e-08 -2.28114296e-07 -3.96337272e-07
atom      3.2829456577     3.8081313581    12.6700746631   Mg  0.0 0.0   -2.15826698e-07 -8.21811024e-08  3.96493588e-07
atom      8.8689116251     0.9390488449    12.6700746721   Mg  0.0 0.0    1.79068999e-07 -1.45808736e-07  3.96517299e-07
atom      8.5606270139     7.2111785093    12.6700746485   Mg  0.0 0.0    3.67305203e-08  2.28026135e-07  3.96474838e-07
atom      4.0171317154     8.6001846753    16.3445599043   Mg  0.0 0.0   -3.46187239e-07 -1.76330851e-07 -1.89948006e-14
atom     -2.5523828786    11.1372043815    16.3445599043   Mg  0.0 0.0    3.25775304e-07 -2.11628009e-07 -2.03034406e-14
atom     -1.4647491307     4.1793280781    16.3445599043   Mg  0.0 0.0    2.03640061e-08  3.87996457e-07 -1.74400825e-14
atom      3.2829456576     3.8081313582    20.0190451454   Mg  0.0 0.0   -2.15826859e-07 -8.21812949e-08 -3.96493642e-07
atom      8.8689116251     0.9390488449    20.0190451365   Mg  0.0 0.0    1.79069245e-07 -1.45808792e-07 -3.96517372e-07
atom      8.5606270139     7.2111785093    20.0190451601   Mg  0.0 0.0    3.67304436e-08  2.28026390e-07 -3.96474856e-07
atom     -0.0000000706     0.0000000716     2.2455762170   Si  0.0 0.0    2.02295862e-11 -2.50152124e-11  9.39037340e-07
atom      6.9041614360     3.9861195625     1.9977776027   Si  0.0 0.0    5.04419226e-12 -7.32265692e-12  1.05392572e-06
atom     -0.0000000788     7.9722390238     5.4481866958   Si  0.0 0.0    7.33349044e-12 -2.83254310e-11  1.05757903e-13
atom     -0.0000000706     0.0000000716     8.6507971746   Si  0.0 0.0    2.03269983e-11 -2.51110090e-11 -9.39039025e-07
atom     -0.0000001059     0.0000001104    13.1419492337   Si  0.0 0.0   -2.01843570e-11  2.48724939e-11  9.37692436e-07
atom      6.9041614360     3.9861195626     8.8985957888   Si  0.0 0.0    5.04136716e-12 -7.32701953e-12 -1.05392559e-06
atom     -0.0000000901     7.9722390413    12.8941508333   Si  0.0 0.0   -5.09005783e-12  7.32711911e-12  1.05407315e-06
atom     -0.0000001059     0.0000001104    19.5471705749   Si  0.0 0.0   -2.03551182e-11  2.50709555e-11 -9.37690855e-07
atom      6.9041614247     3.9861195800    16.3445599043   Si  0.0 0.0   -7.47862327e-12  2.82987801e-11 -9.27781267e-14
atom     -0.0000000901     7.9722390413    19.7949689753   Si  0.0 0.0   -5.09099917e-12  7.31971793e-12 -1.05407325e-06
energy -3.597997207218910e+02
charge 0.0000
end
