begin
comment uuid: 2de31ede-4cd9-4681-ab6d-28c194209012 parent_uuid: 46939af9-eee4-4d42-a067-25e919f9bf55 trajectory_step: final_scf
lattice     13.4293656441     0.0000000066    -0.0000000000
lattice     -6.7146828162    11.6301717516    -0.0000000001
lattice     -0.0000000000     0.0000000001    21.9973652623
atom      3.4745035785     7.9305926497     1.7845591390   Mg  0.0 0.0    1.00761564e-06 -1.14827786e-06  6.21795258e-07
atom     -1.8906637345    10.6738839832     1.7845591465   Mg  0.0 0.0    4.90664554e-07  1.44674564e-06  6.21827777e-07
atom     -1.5838400753     4.6558671179     1.7845591166   Mg  0.0 0.0   -1.49823911e-06 -2.98481102e-07  6.21796557e-07
atom      2.8402480984     3.2083011989     5.4993414080   Mg  0.0 0.0    7.25638541e-07 -1.81657018e-08 -5.33623792e-15
atom      9.2307712006     0.8555765990     5.4993414080   Mg  0.0 0.0   -3.47050338e-07  6.37496062e-07  1.30502745e-15
atom      8.0730289426     7.5662942026     5.4993414080   Mg  0.0 0.0   -3.78539761e-07 -6.19337174e-07 -5.28402338e-15
atom      3.4745035784     7.9305926497     9.2141236770   Mg  0.0 0.0    1.00761571e-06 -1.14827782e-06 -6.21795236e-07
atom     -1.8906637345    10.6738839832     9.2141236694   Mg  0.0 0.0    4.90664490e-07  1.44674567e-06 -6.21827739e-07
atom     -1.5838400753     4.6558671179     9.2141236994   Mg  0.0 0.0   -1.49823912e-06 -2.98481112e-07 -6.21796606e-07
atom      3.2401790785     3.6995792906    12.7832417746   Mg  0.0 0.0   -1.00761622e-06  1.14827414e-06  6.21791712e-07
atom      8.6053463864     0.9562879509    12.7832417822   Mg  0.0 0.0   -4.90661076e-07 -1.44674457e-06  6.21824512e-07
atom      8.2985227352     6.9743048149    12.7832417522   Mg  0.0 0.0    1.49823637e-06  2.98483328e-07  6.21793457e-07
atom      3.8744345675     8.4218707474    16.4980240392   Mg  0.0 0.0   -7.25645123e-07  1.81587142e-08  7.45133527e-15
atom     -2.5160885582    10.7745953398    16.4980240392   Mg  0.0 0.0    3.47059644e-07 -6.37497890e-07  1.61194419e-16
atom     -1.3583462820     4.0638777196    16.4980240392   Mg  0.0 0.0    3.78537017e-07  6.19346394e-07  8.69208422e-15
atom      3.2401790785     3.6995792907    20.2128063037   Mg  0.0 0.0   -1.00761615e-06  1.14827418e-06 -6.21791737e-07
atom      8.6053463864     0.9562879509    20.2128062962   Mg  0.0 0.0   -4.90661143e-07 -1.44674454e-06 -6.21824553e-07
atom      8.2985227352     6.9743048149    20.2128063261   Mg  0.0 0.0    1.49823636e-06  2.98483310e-07 -6.21793411e-07
atom     -0.0000000694     0.0000000625     2.2142542628   Si  0.0 0.0    2.70031152e-11 -8.00977214e-12  6.36035583e-07
atom      6.7146827418     3.8767240022     2.0130534878   Si  0.0 0.0    7.80747773e-12 -6.47804045e-13  1.19154339e-06
atom     -0.0000000783     7.7534479053     5.4993414080   Si  0.0 0.0    1.85490061e-11 -1.77886705e-11 -2.67298564e-14
atom     -0.0000000694     0.0000000625     8.7844285531   Si  0.0 0.0    2.70341734e-11 -8.02169529e-12 -6.36035340e-07
atom     -0.0000001022     0.0000001085    13.2129368673   Si  0.0 0.0   -2.69756174e-11  8.08900677e-12  6.36054097e-07
atom      6.7146827418     3.8767240022     8.9856293282   Si  0.0 0.0    7.80417224e-12 -6.41343388e-13 -1.19154340e-06
atom     -0.0000000856     7.7534479335    13.0117361249   Si  0.0 0.0   -7.84243987e-12  7.62131153e-13  1.19153873e-06
atom     -0.0000001022     0.0000001085    19.7831112111   Si  0.0 0.0   -2.70139392e-11  8.17483099e-12 -6.36054337e-07
atom      6.7146827345     3.8767240304    16.4980240392   Si  0.0 0.0   -1.88037740e-11  1.76421397e-11  2.47452584e-14
atom     -0.0000000856     7.7534479335    19.9843119534   Si  0.0 0.0   -7.84530384e-12  7.67277360e-13 -1.19153872e-06
energy -3.597591293592811e+02
charge 0.0000
end
