begin
comment uuid: 2de31ede-4cd9-4681-ab6d-28c194209012 parent_uuid: 46939af9-eee4-4d42-a067-25e919f9bf55 trajectory_step: final_scf
lattice     13.7716788207    -0.0000000019    -0.0000000000
lattice     -6.8858394119    11.9266216372    -0.0000000001
lattice     -0.0000000000     0.0000000001    22.3685164386
atom      3.5735775773     8.1252894770     1.8379071967   Mg  0.0 0.0    8.45258788e-07  3.10038527e-07  2.74230575e-07
atom     -1.9376577452    10.9587855768     1.8379072236   Mg  0.0 0.0   -6.90900639e-07  5.76585516e-07  2.74666274e-07
atom     -1.6359201900     4.7691682606     1.8379069888   Mg  0.0 0.0   -1.53566392e-07 -8.88212369e-07  2.73263860e-07
atom      2.9180780435     3.3482766742     5.5921292036   Mg  0.0 0.0   -1.08955746e-07 -2.80306772e-07  3.57106327e-15
atom      9.4129465726     0.8529911139     5.5921292036   Mg  0.0 0.0    2.97562374e-07  4.50724452e-08  4.26045866e-15
atom      8.3264936000     7.7253539433     5.5921292036   Mg  0.0 0.0   -1.87293309e-07  2.33267659e-07  6.43407493e-16
atom      3.5735775773     8.1252894770     9.3463512105   Mg  0.0 0.0    8.45258921e-07  3.10038670e-07 -2.74230621e-07
atom     -1.9376577451    10.9587855768     9.3463511837   Mg  0.0 0.0   -6.90900828e-07  5.76585552e-07 -2.74666314e-07
atom     -1.6359201900     4.7691682606     9.3463514185   Mg  0.0 0.0   -1.53566335e-07 -8.88212531e-07 -2.73263933e-07
atom      3.3122616575     3.8013323535    13.0221654292   Mg  0.0 0.0   -8.45252393e-07 -3.09997285e-07  2.74269528e-07
atom      8.8234969648     0.9678362344    13.0221654561   Mg  0.0 0.0    6.90861729e-07 -5.76601464e-07  2.74705246e-07
atom      8.5217594339     7.1574535470    13.0221652212   Mg  0.0 0.0    1.53598894e-07  8.88186874e-07  2.73302787e-07
atom      3.9677612214     8.5783451789    16.7763874229   Mg  0.0 0.0    1.09051912e-07  2.80417508e-07 -4.01247339e-15
atom     -2.5271073877    11.0736307120    16.7763874229   Mg  0.0 0.0   -2.97706163e-07 -4.50444192e-08 -4.62108655e-15
atom     -1.4406543515     4.2012678269    16.7763874229   Mg  0.0 0.0    1.87340837e-07 -2.33405972e-07 -1.40877196e-15
atom      3.3122616575     3.8013323535    20.5306094166   Mg  0.0 0.0   -8.45252268e-07 -3.09997146e-07 -2.74269482e-07
atom      8.8234969648     0.9678362344    20.5306093898   Mg  0.0 0.0    6.90861546e-07 -5.76601434e-07 -2.74705206e-07
atom      8.5217594339     7.1574535470    20.5306096245   Mg  0.0 0.0    1.53598953e-07  8.88186720e-07 -2.73302714e-07
atom      0.0000001297    -0.0000001795     2.2985500110   Si  0.0 0.0    5.12205178e-10 -9.79791574e-10  9.59014905e-07
atom      6.8858393155     3.9755406376     2.0277528284   Si  0.0 0.0    1.43777405e-10 -3.60946140e-10  9.56328009e-07
atom      0.0000000115     7.9510809974     5.5921292036   Si  0.0 0.0    1.29038578e-10 -1.07886622e-09 -6.81571865e-14
atom      0.0000001298    -0.0000001795     8.8857083964   Si  0.0 0.0    5.12203002e-10 -9.79777705e-10 -9.59014234e-07
atom     -0.0000003057     0.0000003606    13.4828081219   Si  0.0 0.0   -5.12200578e-10  9.79864979e-10  9.58689023e-07
atom      6.8858393155     3.9755406376     9.1565055789   Si  0.0 0.0    1.43780885e-10 -3.60944477e-10 -9.56328105e-07
atom     -0.0000000827     7.9510811788    13.2120110617   Si  0.0 0.0   -1.43691940e-10  3.60921559e-10  9.56368676e-07
atom     -0.0000003057     0.0000003606    20.0699667240   Si  0.0 0.0   -5.12201446e-10  9.79879595e-10 -9.58689692e-07
atom      6.8858392213     3.9755408190    16.7763874229   Si  0.0 0.0   -1.29102708e-10  1.07865650e-09  5.00873541e-14
atom     -0.0000000827     7.9510811789    20.3407637841   Si  0.0 0.0   -1.43689366e-10  3.60923437e-10 -9.56368561e-07
energy -3.598075082177355e+02
charge 0.0000
end
