begin
comment uuid: 2de31ede-4cd9-4681-ab6d-28c194209012 parent_uuid: 46939af9-eee4-4d42-a067-25e919f9bf55 trajectory_step: final_scf
lattice     13.8083230453    -0.0000000005    -0.0000000000
lattice     -6.9041615230    11.9583584228    -0.0000000001
lattice     -0.0000000000     0.0000000001    21.7927464170
atom      3.6212156913     8.1502272658     1.7737014347   Mg  0.0 0.0    2.15848869e-07  8.23199522e-08  3.96356134e-07
atom     -1.9647502982    11.0193097515     1.7737014437   Mg  0.0 0.0   -1.79200245e-07  1.45758294e-07  3.96379858e-07
atom     -1.6564656521     4.7471800818     1.7737014201   Mg  0.0 0.0   -3.66213067e-08 -2.28114581e-07  3.96337315e-07
atom      2.8870296793     3.3581739885     5.4481866958   Mg  0.0 0.0    3.46526593e-07  1.76751541e-07  2.03158793e-14
atom      9.4565441482     0.8211542347     5.4481866958   Mg  0.0 0.0   -3.26309261e-07  2.11711588e-07  1.72362566e-14
atom      8.3689105040     7.7790304536     5.4481866958   Mg  0.0 0.0   -2.01694122e-08 -3.88500529e-07  2.55100916e-14
atom      3.6212156913     8.1502272658     9.1226719568   Mg  0.0 0.0    2.15848723e-07  8.23197665e-08 -3.96356059e-07
atom     -1.9647502982    11.0193097515     9.1226719478   Mg  0.0 0.0   -1.79200039e-07  1.45758242e-07 -3.96379758e-07
atom     -1.6564656521     4.7471800818     9.1226719714   Mg  0.0 0.0   -3.66213901e-08 -2.28114295e-07 -3.96337279e-07
atom      3.2829456577     3.8081313581    12.6700746631   Mg  0.0 0.0   -2.15826695e-07 -8.21811024e-08  3.96493587e-07
atom      8.8689116251     0.9390488449    12.6700746721   Mg  0.0 0.0    1.79068990e-07 -1.45808735e-07  3.96517294e-07
atom      8.5606270139     7.2111785093    12.6700746485   Mg  0.0 0.0    3.67305204e-08  2.28026146e-07  3.96474846e-07
atom      4.0171317154     8.6001846753    16.3445599043   Mg  0.0 0.0   -3.46187236e-07 -1.76330851e-07 -1.79424330e-14
atom     -2.5523828786    11.1372043815    16.3445599043   Mg  0.0 0.0    3.25775300e-07 -2.11628009e-07 -2.24401157e-14
atom     -1.4647491307     4.1793280781    16.3445599043   Mg  0.0 0.0    2.03640045e-08  3.87996462e-07 -1.40483017e-14
atom      3.2829456576     3.8081313582    20.0190451454   Mg  0.0 0.0   -2.15826860e-07 -8.21812920e-08 -3.96493642e-07
atom      8.8689116251     0.9390488449    20.0190451365   Mg  0.0 0.0    1.79069233e-07 -1.45808788e-07 -3.96517370e-07
atom      8.5606270139     7.2111785093    20.0190451601   Mg  0.0 0.0    3.67304370e-08  2.28026405e-07 -3.96474858e-07
atom     -0.0000000706     0.0000000716     2.2455762170   Si  0.0 0.0    2.01970905e-11 -2.49825855e-11  9.39037335e-07
atom      6.9041614360     3.9861195625     1.9977776027   Si  0.0 0.0    5.04505048e-12 -7.32014852e-12  1.05392572e-06
atom     -0.0000000788     7.9722390238     5.4481866958   Si  0.0 0.0    7.33576175e-12 -2.83253058e-11  1.06140134e-13
atom     -0.0000000706     0.0000000716     8.6507971746   Si  0.0 0.0    2.03549600e-11 -2.51446096e-11 -9.39039024e-07
atom     -0.0000001059     0.0000001104    13.1419492337   Si  0.0 0.0   -2.03373482e-11  2.50382801e-11  9.37692436e-07
atom      6.9041614360     3.9861195626     8.8985957888   Si  0.0 0.0    5.04292923e-12 -7.32562992e-12 -1.05392559e-06
atom     -0.0000000901     7.9722390413    12.8941508333   Si  0.0 0.0   -5.09035146e-12  7.32571358e-12  1.05407315e-06
atom     -0.0000001059     0.0000001104    19.5471705749   Si  0.0 0.0   -2.02015759e-11  2.49036483e-11 -9.37690851e-07
atom      6.9041614247     3.9861195800    16.3445599043   Si  0.0 0.0   -7.47926235e-12  2.82975130e-11 -9.31403022e-14
atom     -0.0000000901     7.9722390413    19.7949689753   Si  0.0 0.0   -5.09207006e-12  7.31929475e-12 -1.05407325e-06
energy -3.597997207218910e+02
charge 0.0000
end
