begin
comment uuid: 2de31ede-4cd9-4681-ab6d-28c194209012 parent_uuid: 46939af9-eee4-4d42-a067-25e919f9bf55 trajectory_step: final_scf
lattice     13.7716788207    -0.0000000019    -0.0000000000
lattice     -6.8858394119    11.9266216372    -0.0000000001
lattice     -0.0000000000     0.0000000001    22.3685164386
atom      3.5735775773     8.1252894770     1.8379071967   Mg  0.0 0.0    8.45258789e-07  3.10038527e-07  2.74230574e-07
atom     -1.9376577452    10.9587855768     1.8379072236   Mg  0.0 0.0   -6.90900639e-07  5.76585517e-07  2.74666274e-07
atom     -1.6359201900     4.7691682606     1.8379069888   Mg  0.0 0.0   -1.53566392e-07 -8.88212370e-07  2.73263860e-07
atom      2.9180780435     3.3482766742     5.5921292036   Mg  0.0 0.0   -1.08955746e-07 -2.80306773e-07  3.77906566e-15
atom      9.4129465726     0.8529911139     5.5921292036   Mg  0.0 0.0    2.97562375e-07  4.50724454e-08  4.17459480e-15
atom      8.3264936000     7.7253539433     5.5921292036   Mg  0.0 0.0   -1.87293310e-07  2.33267660e-07  7.13957936e-16
atom      3.5735775773     8.1252894770     9.3463512105   Mg  0.0 0.0    8.45258922e-07  3.10038669e-07 -2.74230621e-07
atom     -1.9376577451    10.9587855768     9.3463511837   Mg  0.0 0.0   -6.90900829e-07  5.76585553e-07 -2.74666315e-07
atom     -1.6359201900     4.7691682606     9.3463514185   Mg  0.0 0.0   -1.53566335e-07 -8.88212531e-07 -2.73263934e-07
atom      3.3122616575     3.8013323535    13.0221654292   Mg  0.0 0.0   -8.45252392e-07 -3.09997284e-07  2.74269527e-07
atom      8.8234969648     0.9678362344    13.0221654561   Mg  0.0 0.0    6.90861730e-07 -5.76601465e-07  2.74705246e-07
atom      8.5217594339     7.1574535470    13.0221652212   Mg  0.0 0.0    1.53598893e-07  8.88186873e-07  2.73302786e-07
atom      3.9677612214     8.5783451789    16.7763874229   Mg  0.0 0.0    1.09051912e-07  2.80417509e-07 -3.51626460e-15
atom     -2.5271073877    11.0736307120    16.7763874229   Mg  0.0 0.0   -2.97706164e-07 -4.50444189e-08 -3.71705842e-15
atom     -1.4406543515     4.2012678269    16.7763874229   Mg  0.0 0.0    1.87340837e-07 -2.33405972e-07 -5.78360116e-16
atom      3.3122616575     3.8013323535    20.5306094166   Mg  0.0 0.0   -8.45252267e-07 -3.09997145e-07 -2.74269481e-07
atom      8.8234969648     0.9678362344    20.5306093898   Mg  0.0 0.0    6.90861546e-07 -5.76601434e-07 -2.74705206e-07
atom      8.5217594339     7.1574535470    20.5306096245   Mg  0.0 0.0    1.53598952e-07  8.88186720e-07 -2.73302713e-07
atom      0.0000001297    -0.0000001795     2.2985500110   Si  0.0 0.0    5.12206111e-10 -9.79790659e-10  9.59014905e-07
atom      6.8858393155     3.9755406376     2.0277528284   Si  0.0 0.0    1.43778027e-10 -3.60945720e-10  9.56328009e-07
atom      0.0000000115     7.9510809974     5.5921292036   Si  0.0 0.0    1.29038760e-10 -1.07886698e-09 -6.76918200e-14
atom      0.0000001298    -0.0000001795     8.8857083964   Si  0.0 0.0    5.12204496e-10 -9.79777048e-10 -9.59014235e-07
atom     -0.0000003057     0.0000003606    13.4828081219   Si  0.0 0.0   -5.12201861e-10  9.79863900e-10  9.58689024e-07
atom      6.8858393155     3.9755406376     9.1565055789   Si  0.0 0.0    1.43780391e-10 -3.60943517e-10 -9.56328105e-07
atom     -0.0000000827     7.9510811788    13.2120110617   Si  0.0 0.0   -1.43691966e-10  3.60921525e-10  9.56368676e-07
atom     -0.0000003057     0.0000003606    20.0699667240   Si  0.0 0.0   -5.12204596e-10  9.79878740e-10 -9.58689693e-07
atom      6.8858392213     3.9755408190    16.7763874229   Si  0.0 0.0   -1.29103889e-10  1.07865644e-09  5.06857634e-14
atom     -0.0000000827     7.9510811789    20.3407637841   Si  0.0 0.0   -1.43688606e-10  3.60923960e-10 -9.56368563e-07
energy -3.598075082177355e+02
charge 0.0000
end
