begin
comment uuid: 2de31ede-4cd9-4681-ab6d-28c194209012 parent_uuid: 46939af9-eee4-4d42-a067-25e919f9bf55 trajectory_step: final_scf
lattice     13.7716788207    -0.0000000019    -0.0000000000
lattice     -6.8858394119    11.9266216372    -0.0000000001
lattice     -0.0000000000     0.0000000001    22.3685164386
atom      3.5735775773     8.1252894770     1.8379071967   Mg  0.0 0.0    8.45258789e-07  3.10038527e-07  2.74230575e-07
atom     -1.9376577452    10.9587855768     1.8379072236   Mg  0.0 0.0   -6.90900638e-07  5.76585515e-07  2.74666274e-07
atom     -1.6359201900     4.7691682606     1.8379069888   Mg  0.0 0.0   -1.53566394e-07 -8.88212369e-07  2.73263860e-07
atom      2.9180780435     3.3482766742     5.5921292036   Mg  0.0 0.0   -1.08955746e-07 -2.80306772e-07  4.17113309e-15
atom      9.4129465726     0.8529911139     5.5921292036   Mg  0.0 0.0    2.97562374e-07  4.50724455e-08  4.42027986e-15
atom      8.3264936000     7.7253539433     5.5921292036   Mg  0.0 0.0   -1.87293309e-07  2.33267659e-07  4.98846317e-16
atom      3.5735775773     8.1252894770     9.3463512105   Mg  0.0 0.0    8.45258922e-07  3.10038670e-07 -2.74230622e-07
atom     -1.9376577451    10.9587855768     9.3463511837   Mg  0.0 0.0   -6.90900829e-07  5.76585551e-07 -2.74666314e-07
atom     -1.6359201900     4.7691682606     9.3463514185   Mg  0.0 0.0   -1.53566336e-07 -8.88212531e-07 -2.73263934e-07
atom      3.3122616575     3.8013323535    13.0221654292   Mg  0.0 0.0   -8.45252392e-07 -3.09997286e-07  2.74269529e-07
atom      8.8234969648     0.9678362344    13.0221654561   Mg  0.0 0.0    6.90861730e-07 -5.76601464e-07  2.74705246e-07
atom      8.5217594339     7.1574535470    13.0221652212   Mg  0.0 0.0    1.53598894e-07  8.88186873e-07  2.73302786e-07
atom      3.9677612214     8.5783451789    16.7763874229   Mg  0.0 0.0    1.09051912e-07  2.80417509e-07 -3.21880333e-15
atom     -2.5271073877    11.0736307120    16.7763874229   Mg  0.0 0.0   -2.97706164e-07 -4.50444193e-08 -3.51289837e-15
atom     -1.4406543515     4.2012678269    16.7763874229   Mg  0.0 0.0    1.87340837e-07 -2.33405972e-07  4.48885447e-17
atom      3.3122616575     3.8013323535    20.5306094166   Mg  0.0 0.0   -8.45252268e-07 -3.09997146e-07 -2.74269483e-07
atom      8.8234969648     0.9678362344    20.5306093898   Mg  0.0 0.0    6.90861546e-07 -5.76601434e-07 -2.74705206e-07
atom      8.5217594339     7.1574535470    20.5306096245   Mg  0.0 0.0    1.53598953e-07  8.88186721e-07 -2.73302714e-07
atom      0.0000001297    -0.0000001795     2.2985500110   Si  0.0 0.0    5.12204798e-10 -9.79792904e-10  9.59014903e-07
atom      6.8858393155     3.9755406376     2.0277528284   Si  0.0 0.0    1.43777803e-10 -3.60945349e-10  9.56328010e-07
atom      0.0000000115     7.9510809974     5.5921292036   Si  0.0 0.0    1.29037425e-10 -1.07886653e-09 -6.84179220e-14
atom      0.0000001298    -0.0000001795     8.8857083964   Si  0.0 0.0    5.12202795e-10 -9.79777774e-10 -9.59014234e-07
atom     -0.0000003057     0.0000003606    13.4828081219   Si  0.0 0.0   -5.12198274e-10  9.79866099e-10  9.58689024e-07
atom      6.8858393155     3.9755406376     9.1565055789   Si  0.0 0.0    1.43780024e-10 -3.60943768e-10 -9.56328106e-07
atom     -0.0000000827     7.9510811788    13.2120110617   Si  0.0 0.0   -1.43692203e-10  3.60921330e-10  9.56368678e-07
atom     -0.0000003057     0.0000003606    20.0699667240   Si  0.0 0.0   -5.12200481e-10  9.79879221e-10 -9.58689692e-07
atom      6.8858392213     3.9755408190    16.7763874229   Si  0.0 0.0   -1.29103861e-10  1.07865713e-09  4.99438630e-14
atom     -0.0000000827     7.9510811789    20.3407637841   Si  0.0 0.0   -1.43689656e-10  3.60923377e-10 -9.56368564e-07
energy -3.598075082177355e+02
charge 0.0000
end
