begin
comment uuid: 2de31ede-4cd9-4681-ab6d-28c194209012 parent_uuid: 46939af9-eee4-4d42-a067-25e919f9bf55 trajectory_step: final_scf
lattice     13.5992929394    -0.0000000001    -0.0000000000
lattice     -6.7996464697    11.7773331471    -0.0000000001
lattice     -0.0000000000     0.0000000000    22.8521976129
atom      3.4571119836     7.9851401786     1.9103058185   Mg  0.0 0.0    6.61027562e-08  2.01986675e-07 -1.60135606e-07
atom     -1.8442438195    10.7787100567     1.9103058268   Mg  0.0 0.0   -2.08003715e-07 -4.37214980e-08 -1.60159497e-07
atom     -1.6128684052     4.7908163094     1.9103058084   Mg  0.0 0.0    1.41850190e-07 -1.58221943e-07 -1.60115035e-07
atom      2.9258158893     3.2224254843     5.7130494992   Mg  0.0 0.0    3.65995057e-07 -3.75922596e-07  1.89680095e-14
atom      9.3456826208     0.9226183406     5.7130494992   Mg  0.0 0.0    1.42526392e-07  5.04956263e-07  2.03387241e-14
atom      8.1274406647     7.6322895655     5.7130494992   Mg  0.0 0.0   -5.08590036e-07 -1.28968786e-07  2.06586720e-14
atom      3.4571119836     7.9851401786     9.5157931799   Mg  0.0 0.0    6.61024999e-08  2.01986396e-07  1.60135769e-07
atom     -1.8442438195    10.7787100567     9.5157931716   Mg  0.0 0.0   -2.08003344e-07 -4.37215844e-08  1.60159672e-07
atom     -1.6128684052     4.7908163094     9.5157931900   Mg  0.0 0.0    1.41850087e-07 -1.58221564e-07  1.60115167e-07
atom      3.3425343125     3.7921931523    13.3364046273   Mg  0.0 0.0   -6.61037566e-08 -2.01986135e-07 -1.60137723e-07
atom      8.6438901109     0.9986232667    13.3364046355   Mg  0.0 0.0    2.08002895e-07  4.37218273e-08 -1.60160484e-07
atom      8.4125147053     6.9865170136    13.3364046167   Mg  0.0 0.0   -1.41848111e-07  1.58219201e-07 -1.60111303e-07
atom      3.8738304209     8.5549078565    17.1391483056   Mg  0.0 0.0   -3.65994457e-07  3.75925339e-07 -9.81059856e-15
atom     -2.5460363449    10.8547149898    17.1391483056   Mg  0.0 0.0   -1.42531104e-07 -5.04952691e-07 -1.20476639e-14
atom     -1.3277943631     4.1450437408    17.1391483056   Mg  0.0 0.0    5.08593731e-07  1.28961600e-07 -1.15102913e-14
atom      3.3425343125     3.7921931523    20.9418919840   Mg  0.0 0.0   -6.61040160e-08 -2.01986421e-07  1.60137591e-07
atom      8.6438901109     0.9986232667    20.9418919758   Mg  0.0 0.0    2.08003276e-07  4.37217432e-08  1.60160340e-07
atom      8.4125147053     6.9865170136    20.9418919946   Mg  0.0 0.0   -1.41848220e-07  1.58219583e-07  1.60111201e-07
atom     -0.0000000752     0.0000000788     2.2299751788   Si  0.0 0.0   -2.81538842e-11  2.83365263e-11  1.05487947e-06
atom      6.7996463871     3.9257777988     2.0773697310   Si  0.0 0.0   -1.10888567e-11  1.51588788e-11  3.53399646e-07
atom     -0.0000000801     7.8515555066     5.7130494992   Si  0.0 0.0   -1.76858317e-11  3.52467277e-11  1.85654865e-14
atom     -0.0000000752     0.0000000788     9.1961238197   Si  0.0 0.0   -2.81558581e-11  2.83475924e-11 -1.05488238e-06
atom     -0.0000000986     0.0000001001    13.6560739395   Si  0.0 0.0    2.82177016e-11 -2.50672377e-11  1.05487105e-06
atom      6.7996463871     3.9257777988     9.3487292674   Si  0.0 0.0   -1.10784831e-11  1.51628994e-11 -3.53399455e-07
atom     -0.0000000913     7.8515555270    13.5034685443   Si  0.0 0.0    1.11313401e-11 -1.51289671e-11  3.53401054e-07
atom     -0.0000000986     0.0000001001    20.6222226718   Si  0.0 0.0    2.82153693e-11 -2.50568063e-11 -1.05486831e-06
atom      6.7996463761     3.9257778193    17.1391483056   Si  0.0 0.0    1.73331697e-11 -3.72832882e-11  4.69079875e-15
atom     -0.0000000913     7.8515555270    20.7748280670   Si  0.0 0.0    1.11406726e-11 -1.51243517e-11 -3.53401212e-07
energy -3.597317579524836e+02
charge 0.0000
end
