begin
comment uuid: 2de31ede-4cd9-4681-ab6d-28c194209012 parent_uuid: 46939af9-eee4-4d42-a067-25e919f9bf55 trajectory_step: final_scf
lattice     13.8083230453    -0.0000000005    -0.0000000000
lattice     -6.9041615230    11.9583584228    -0.0000000001
lattice     -0.0000000000     0.0000000001    21.7927464170
atom      3.6212156913     8.1502272658     1.7737014347   Mg  0.0 0.0    2.15848880e-07  8.23199552e-08  3.96356135e-07
atom     -1.9647502982    11.0193097515     1.7737014437   Mg  0.0 0.0   -1.79200303e-07  1.45758301e-07  3.96379869e-07
atom     -1.6564656521     4.7471800818     1.7737014201   Mg  0.0 0.0   -3.66213287e-08 -2.28114513e-07  3.96337303e-07
atom      2.8870296793     3.3581739885     5.4481866958   Mg  0.0 0.0    3.46526597e-07  1.76751538e-07  2.16918860e-14
atom      9.4565441482     0.8211542347     5.4481866958   Mg  0.0 0.0   -3.26309262e-07  2.11711585e-07  3.81446035e-14
atom      8.3689105040     7.7790304536     5.4481866958   Mg  0.0 0.0   -2.01694085e-08 -3.88500528e-07  2.40495034e-15
atom      3.6212156913     8.1502272658     9.1226719568   Mg  0.0 0.0    2.15848714e-07  8.23197629e-08 -3.96356058e-07
atom     -1.9647502982    11.0193097515     9.1226719478   Mg  0.0 0.0   -1.79199990e-07  1.45758236e-07 -3.96379759e-07
atom     -1.6564656521     4.7471800818     9.1226719714   Mg  0.0 0.0   -3.66213728e-08 -2.28114351e-07 -3.96337280e-07
atom      3.2829456577     3.8081313581    12.6700746631   Mg  0.0 0.0   -2.15826693e-07 -8.21810995e-08  3.96493588e-07
atom      8.8689116251     0.9390488449    12.6700746721   Mg  0.0 0.0    1.79068975e-07 -1.45808733e-07  3.96517296e-07
atom      8.5606270139     7.2111785093    12.6700746485   Mg  0.0 0.0    3.67305099e-08  2.28026161e-07  3.96474845e-07
atom      4.0171317154     8.6001846753    16.3445599043   Mg  0.0 0.0   -3.46187238e-07 -1.76330849e-07 -1.73303473e-14
atom     -2.5523828786    11.1372043815    16.3445599043   Mg  0.0 0.0    3.25775300e-07 -2.11628005e-07 -2.80019324e-14
atom     -1.4647491307     4.1793280781    16.3445599043   Mg  0.0 0.0    2.03640010e-08  3.87996459e-07 -8.59749727e-15
atom      3.2829456576     3.8081313582    20.0190451454   Mg  0.0 0.0   -2.15826858e-07 -8.21812946e-08 -3.96493642e-07
atom      8.8689116251     0.9390488449    20.0190451365   Mg  0.0 0.0    1.79069255e-07 -1.45808790e-07 -3.96517380e-07
atom      8.5606270139     7.2111785093    20.0190451601   Mg  0.0 0.0    3.67304471e-08  2.28026377e-07 -3.96474848e-07
atom     -0.0000000706     0.0000000716     2.2455762170   Si  0.0 0.0    2.03950340e-11 -2.51971234e-11  9.39037338e-07
atom      6.9041614360     3.9861195625     1.9977776027   Si  0.0 0.0    5.03885728e-12 -7.30878050e-12  1.05392572e-06
atom     -0.0000000788     7.9722390238     5.4481866958   Si  0.0 0.0    7.33482905e-12 -2.83281341e-11  1.06023537e-13
atom     -0.0000000706     0.0000000716     8.6507971746   Si  0.0 0.0    2.02068148e-11 -2.49787980e-11 -9.39039020e-07
atom     -0.0000001059     0.0000001104    13.1419492337   Si  0.0 0.0   -2.02149063e-11  2.49031868e-11  9.37692433e-07
atom      6.9041614360     3.9861195626     8.8985957888   Si  0.0 0.0    5.04711776e-12 -7.33686030e-12 -1.05392559e-06
atom     -0.0000000901     7.9722390413    12.8941508333   Si  0.0 0.0   -5.08852059e-12  7.33124720e-12  1.05407314e-06
atom     -0.0000001059     0.0000001104    19.5471705749   Si  0.0 0.0   -2.03706379e-11  2.50883979e-11 -9.37690855e-07
atom      6.9041614247     3.9861195800    16.3445599043   Si  0.0 0.0   -7.47955598e-12  2.83025777e-11 -9.33083504e-14
atom     -0.0000000901     7.9722390413    19.7949689753   Si  0.0 0.0   -5.09241550e-12  7.31355387e-12 -1.05407325e-06
energy -3.597997207218910e+02
charge 0.0000
end
