begin
comment 22 atoms, species Mg10Si12
lattice     15.3332314502     0.0000000000    22.9998471752
lattice      0.0000000000     8.1210012642     0.0000000000
lattice    -11.4999235876     0.0000000000     3.8333078625
atom    -11.3466963142     0.0000000000     3.8217754591   Mg  0.0 0.0    0.00000000e+00 -4.99999962e-09  2.49999981e-06
atom     -2.8516106418     4.0605061606     3.1892623853   Mg  0.0 0.0   -1.17699991e-05  4.99999962e-09 -1.37199990e-04
atom     -8.1530664319     4.0605061606     6.9658149012   Mg  0.0 0.0    1.07539992e-04 -1.49999989e-08 -5.57429958e-04
atom      4.6261523030     0.0000000000     8.3446032879   Mg  0.0 0.0   -1.04584992e-04  1.99999985e-08  5.56314958e-04
atom     -0.6754085282     0.0000000000    12.1212193812   Mg  0.0 0.0    1.76899987e-05 -4.99999962e-09  1.36269990e-04
atom     -6.5678778782     0.0000000000     3.8895960529   Si  0.0 0.0   -3.13284976e-04  9.99999925e-09  1.79264987e-04
atom      0.3245907162     0.0000000000     5.3641321359   Si  0.0 0.0   -2.44144982e-04 -0.00000000e+00  4.75299964e-04
atom     -3.8111359048     0.0000000000     7.3918669948   Si  0.0 0.0    7.81199941e-05 -9.99999925e-09 -6.77844949e-04
atom      0.2845977124     4.0605061606     7.9185290804   Si  0.0 0.0   -8.33149937e-05  9.99999925e-09  6.76539949e-04
atom     -3.8512505352     4.0605061606     9.9460953208   Si  0.0 0.0    2.41629982e-04 -4.99999962e-09 -4.73314964e-04
atom      3.0410577334     4.0605061606    11.4208221362   Si  0.0 0.0    3.12119977e-04 -3.49999974e-08 -1.80439986e-04
atom     -3.6800778249     4.0605061606    15.3217018110   Mg  0.0 0.0    9.99999925e-08  4.99999962e-09  2.52999981e-06
atom      4.8150078476     0.0000000000    14.6891887372   Mg  0.0 0.0   -1.17399991e-05  4.99999962e-09 -1.37224990e-04
atom     -0.4864479426     0.0000000000    18.4657412530   Mg  0.0 0.0    1.07539992e-04 -9.99999925e-09 -5.57459958e-04
atom     12.2927707923     4.0605061606    19.8445324040   Mg  0.0 0.0   -1.04614992e-04  4.99999962e-09  5.56254958e-04
atom      6.9912099611     4.0605061606    23.6211484973   Mg  0.0 0.0    1.76949987e-05 -4.99999962e-09  1.36229990e-04
atom      1.0987406111     4.0605061606    15.3895224048   Si  0.0 0.0   -3.13324976e-04  1.99999985e-08  1.79344987e-04
atom      7.9912092056     4.0605061606    16.8640584877   Si  0.0 0.0   -2.44184982e-04 -9.99999925e-09  4.75334964e-04
atom      3.8554853487     4.0605061606    18.8917961109   Si  0.0 0.0    7.80949941e-05  0.00000000e+00 -6.77884949e-04
atom      7.9512162017     0.0000000000    19.4184581965   Si  0.0 0.0   -8.33899937e-05 -0.00000000e+00  6.76604949e-04
atom      3.8153679541     0.0000000000    21.4460244368   Si  0.0 0.0    2.41644982e-04  9.99999925e-09 -4.73294964e-04
atom     10.7076762227     0.0000000000    22.9207512523   Si  0.0 0.0    3.12169977e-04  1.49999989e-08 -1.80389986e-04
energy -2.365554100529860e+02
charge 0.0000
end
