begin
comment uuid: a3e15d6f-bdb3-4162-ae77-36b089c2475f 
lattice 27.0372728256 -0.0000000004 -9.2050815968
lattice 0.0000000000 23.1024381087 0.0000000000
lattice -0.6373419832 0.0000000000 26.1665111992
atom   -0.276888    -0.000000   12.920521 Mg  0.0   0.0  0.0000006700  -0.0000000000  0.0000000250
atom   2.026890    3.850406   3.993775 Mg  0.0   0.0  -0.0005460650  0.0000000000  0.0001331700
atom   4.003297    3.850406   10.622705 Mg  0.0   0.0  -0.0011532200  0.0000000000  -0.0001975100
atom   9.280234    -0.000000   -2.467459 Mg  0.0   0.0  0.0011546000  0.0000000000  0.0001975900
atom   11.256641    -0.000000   4.161472 Mg  0.0   0.0  0.0005474200  -0.0000000000  -0.0001330850
atom   1.400816    -0.000000   8.057309 Si  0.0   0.0  -0.0002769500  -0.0000000000  0.0010963750
atom   5.177112    -0.000000   1.454319 Si  0.0   0.0  -0.0009395300  -0.0000000000  -0.0010333000
atom   5.490016    -0.000000   6.155645 Si  0.0   0.0  -0.0000551750  -0.0000000000  0.0008962400
atom   7.793515    3.850406   1.999601 Si  0.0   0.0  0.0000531000  0.0000000000  -0.0008958250
atom   8.106419    3.850406   6.700927 Si  0.0   0.0  0.0009387400  0.0000000000  0.0010336500
atom   11.882716    3.850406   0.097938 Si  0.0   0.0  0.0002764100  0.0000000000  -0.0010973350
atom   13.241748    3.850406   8.317981 Mg  0.0   0.0  0.0000006700  0.0000000000  0.0000000250
atom   15.545527    -0.000000   -0.608766 Mg  0.0   0.0  -0.0005460650  0.0000000000  0.0001331700
atom   17.521933    -0.000000   6.020164 Mg  0.0   0.0  -0.0011532200  0.0000000000  -0.0001975100
atom   22.798870    3.850406   -7.069999 Mg  0.0   0.0  0.0011546000  0.0000000000  0.0001975900
atom   24.775277    3.850406   -0.441069 Mg  0.0   0.0  0.0005474200  0.0000000000  -0.0001330850
atom   14.919452    3.850406   3.454768 Si  0.0   0.0  -0.0002769500  0.0000000000  0.0010963750
atom   18.695749    3.850406   -3.148221 Si  0.0   0.0  -0.0009395300  -0.0000000000  -0.0010333000
atom   19.008652    3.850406   1.553104 Si  0.0   0.0  -0.0000551750  -0.0000000000  0.0008962400
atom   21.312152    -0.000000   -2.602939 Si  0.0   0.0  0.0000531000  0.0000000000  -0.0008958250
atom   21.625055    -0.000000   2.098386 Si  0.0   0.0  0.0009387400  0.0000000000  0.0010336500
atom   25.401352    -0.000000   -4.504603 Si  0.0   0.0  0.0002764100  -0.0000000000  -0.0010973350
atom   -0.595559    -0.000000   26.003777 Mg  0.0   0.0  0.0000006700  -0.0000000000  0.0000000250
atom   1.708219    3.850406   17.077031 Mg  0.0   0.0  -0.0005460650  0.0000000000  0.0001331700
atom   3.684626    3.850406   23.705961 Mg  0.0   0.0  -0.0011532200  0.0000000000  -0.0001975100
atom   8.961563    -0.000000   10.615797 Mg  0.0   0.0  0.0011546000  0.0000000000  0.0001975900
atom   10.937970    -0.000000   17.244727 Mg  0.0   0.0  0.0005474200  -0.0000000000  -0.0001330850
atom   1.082145    -0.000000   21.140564 Si  0.0   0.0  -0.0002769500  0.0000000000  0.0010963750
atom   4.858441    -0.000000   14.537575 Si  0.0   0.0  -0.0009395300  -0.0000000000  -0.0010333000
atom   5.171345    -0.000000   19.238901 Si  0.0   0.0  -0.0000551750  -0.0000000000  0.0008962400
atom   7.474844    3.850406   15.082857 Si  0.0   0.0  0.0000531000  0.0000000000  -0.0008958250
atom   7.787748    3.850406   19.784183 Si  0.0   0.0  0.0009387400  0.0000000000  0.0010336500
atom   11.564045    3.850406   13.181193 Si  0.0   0.0  0.0002764100  -0.0000000000  -0.0010973350
atom   12.923077    3.850406   21.401236 Mg  0.0   0.0  0.0000006700  -0.0000000000  0.0000000250
atom   15.226856    -0.000000   12.474490 Mg  0.0   0.0  -0.0005460650  0.0000000000  0.0001331700
atom   17.203262    -0.000000   19.103420 Mg  0.0   0.0  -0.0011532200  0.0000000000  -0.0001975100
atom   22.480199    3.850406   6.013256 Mg  0.0   0.0  0.0011546000  0.0000000000  0.0001975900
atom   24.456606    3.850406   12.642186 Mg  0.0   0.0  0.0005474200  0.0000000000  -0.0001330850
atom   14.600781    3.850406   16.538024 Si  0.0   0.0  -0.0002769500  0.0000000000  0.0010963750
atom   18.377078    3.850406   9.935034 Si  0.0   0.0  -0.0009395300  0.0000000000  -0.0010333000
atom   18.689981    3.850406   14.636360 Si  0.0   0.0  -0.0000551750  -0.0000000000  0.0008962400
atom   20.993481    -0.000000   10.480316 Si  0.0   0.0  0.0000531000  0.0000000000  -0.0008958250
atom   21.306384    -0.000000   15.181642 Si  0.0   0.0  0.0009387400  -0.0000000000  0.0010336500
atom   25.082681    -0.000000   8.578653 Si  0.0   0.0  0.0002764100  0.0000000000  -0.0010973350
atom   -0.276888    7.700813   12.920521 Mg  0.0   0.0  0.0000006700  -0.0000000000  0.0000000250
atom   2.026890    11.551219   3.993775 Mg  0.0   0.0  -0.0005460650  0.0000000000  0.0001331700
atom   4.003297    11.551219   10.622705 Mg  0.0   0.0  -0.0011532200  0.0000000000  -0.0001975100
atom   9.280234    7.700813   -2.467459 Mg  0.0   0.0  0.0011546000  0.0000000000  0.0001975900
atom   11.256641    7.700813   4.161472 Mg  0.0   0.0  0.0005474200  -0.0000000000  -0.0001330850
atom   1.400816    7.700813   8.057309 Si  0.0   0.0  -0.0002769500  0.0000000000  0.0010963750
atom   5.177112    7.700813   1.454319 Si  0.0   0.0  -0.0009395300  -0.0000000000  -0.0010333000
atom   5.490016    7.700813   6.155645 Si  0.0   0.0  -0.0000551750  -0.0000000000  0.0008962400
atom   7.793515    11.551219   1.999601 Si  0.0   0.0  0.0000531000  -0.0000000000  -0.0008958250
atom   8.106419    11.551219   6.700927 Si  0.0   0.0  0.0009387400  -0.0000000000  0.0010336500
atom   11.882716    11.551219   0.097938 Si  0.0   0.0  0.0002764100  -0.0000000000  -0.0010973350
atom   13.241748    11.551219   8.317981 Mg  0.0   0.0  0.0000006700  -0.0000000000  0.0000000250
atom   15.545527    7.700813   -0.608766 Mg  0.0   0.0  -0.0005460650  0.0000000000  0.0001331700
atom   17.521933    7.700813   6.020164 Mg  0.0   0.0  -0.0011532200  0.0000000000  -0.0001975100
atom   22.798870    11.551219   -7.069999 Mg  0.0   0.0  0.0011546000  0.0000000000  0.0001975900
atom   24.775277    11.551219   -0.441069 Mg  0.0   0.0  0.0005474200  -0.0000000000  -0.0001330850
atom   14.919452    11.551219   3.454768 Si  0.0   0.0  -0.0002769500  -0.0000000000  0.0010963750
atom   18.695749    11.551219   -3.148221 Si  0.0   0.0  -0.0009395300  -0.0000000000  -0.0010333000
atom   19.008652    11.551219   1.553104 Si  0.0   0.0  -0.0000551750  -0.0000000000  0.0008962400
atom   21.312152    7.700813   -2.602939 Si  0.0   0.0  0.0000531000  0.0000000000  -0.0008958250
atom   21.625055    7.700813   2.098386 Si  0.0   0.0  0.0009387400  0.0000000000  0.0010336500
atom   25.401352    7.700813   -4.504603 Si  0.0   0.0  0.0002764100  -0.0000000000  -0.0010973350
atom   -0.595559    7.700813   26.003777 Mg  0.0   0.0  0.0000006700  -0.0000000000  0.0000000250
atom   1.708219    11.551219   17.077031 Mg  0.0   0.0  -0.0005460650  0.0000000000  0.0001331700
atom   3.684626    11.551219   23.705961 Mg  0.0   0.0  -0.0011532200  0.0000000000  -0.0001975100
atom   8.961563    7.700813   10.615797 Mg  0.0   0.0  0.0011546000  0.0000000000  0.0001975900
atom   10.937970    7.700813   17.244727 Mg  0.0   0.0  0.0005474200  -0.0000000000  -0.0001330850
atom   1.082145    7.700813   21.140564 Si  0.0   0.0  -0.0002769500  -0.0000000000  0.0010963750
atom   4.858441    7.700813   14.537575 Si  0.0   0.0  -0.0009395300  -0.0000000000  -0.0010333000
atom   5.171345    7.700813   19.238901 Si  0.0   0.0  -0.0000551750  -0.0000000000  0.0008962400
atom   7.474844    11.551219   15.082857 Si  0.0   0.0  0.0000531000  -0.0000000000  -0.0008958250
atom   7.787748    11.551219   19.784183 Si  0.0   0.0  0.0009387400  -0.0000000000  0.0010336500
atom   11.564045    11.551219   13.181193 Si  0.0   0.0  0.0002764100  -0.0000000000  -0.0010973350
atom   12.923077    11.551219   21.401236 Mg  0.0   0.0  0.0000006700  -0.0000000000  0.0000000250
atom   15.226856    7.700813   12.474490 Mg  0.0   0.0  -0.0005460650  0.0000000000  0.0001331700
atom   17.203262    7.700813   19.103420 Mg  0.0   0.0  -0.0011532200  0.0000000000  -0.0001975100
atom   22.480199    11.551219   6.013256 Mg  0.0   0.0  0.0011546000  0.0000000000  0.0001975900
atom   24.456606    11.551219   12.642186 Mg  0.0   0.0  0.0005474200  -0.0000000000  -0.0001330850
atom   14.600781    11.551219   16.538024 Si  0.0   0.0  -0.0002769500  0.0000000000  0.0010963750
atom   18.377078    11.551219   9.935034 Si  0.0   0.0  -0.0009395300  -0.0000000000  -0.0010333000
atom   18.689981    11.551219   14.636360 Si  0.0   0.0  -0.0000551750  -0.0000000000  0.0008962400
atom   20.993481    7.700813   10.480316 Si  0.0   0.0  0.0000531000  -0.0000000000  -0.0008958250
atom   21.306384    7.700813   15.181642 Si  0.0   0.0  0.0009387400  0.0000000000  0.0010336500
atom   25.082681    7.700813   8.578653 Si  0.0   0.0  0.0002764100  0.0000000000  -0.0010973350
atom   -0.276888    15.401625   12.920521 Mg  0.0   0.0  0.0000006700  -0.0000000000  0.0000000250
atom   2.026890    19.252032   3.993775 Mg  0.0   0.0  -0.0005460650  0.0000000000  0.0001331700
atom   4.003297    19.252032   10.622705 Mg  0.0   0.0  -0.0011532200  -0.0000000000  -0.0001975100
atom   9.280234    15.401625   -2.467459 Mg  0.0   0.0  0.0011546000  -0.0000000000  0.0001975900
atom   11.256641    15.401625   4.161472 Mg  0.0   0.0  0.0005474200  0.0000000000  -0.0001330850
atom   1.400816    15.401625   8.057309 Si  0.0   0.0  -0.0002769500  0.0000000000  0.0010963750
atom   5.177112    15.401625   1.454319 Si  0.0   0.0  -0.0009395300  0.0000000000  -0.0010333000
atom   5.490016    15.401625   6.155645 Si  0.0   0.0  -0.0000551750  -0.0000000000  0.0008962400
atom   7.793515    19.252032   1.999601 Si  0.0   0.0  0.0000531000  0.0000000000  -0.0008958250
atom   8.106419    19.252032   6.700927 Si  0.0   0.0  0.0009387400  0.0000000000  0.0010336500
atom   11.882716    19.252032   0.097938 Si  0.0   0.0  0.0002764100  -0.0000000000  -0.0010973350
atom   13.241748    19.252032   8.317981 Mg  0.0   0.0  0.0000006700  -0.0000000000  0.0000000250
atom   15.545527    15.401625   -0.608766 Mg  0.0   0.0  -0.0005460650  0.0000000000  0.0001331700
atom   17.521933    15.401625   6.020164 Mg  0.0   0.0  -0.0011532200  -0.0000000000  -0.0001975100
atom   22.798870    19.252032   -7.069999 Mg  0.0   0.0  0.0011546000  0.0000000000  0.0001975900
atom   24.775277    19.252032   -0.441069 Mg  0.0   0.0  0.0005474200  0.0000000000  -0.0001330850
atom   14.919452    19.252032   3.454768 Si  0.0   0.0  -0.0002769500  -0.0000000000  0.0010963750
atom   18.695749    19.252032   -3.148221 Si  0.0   0.0  -0.0009395300  0.0000000000  -0.0010333000
atom   19.008652    19.252032   1.553104 Si  0.0   0.0  -0.0000551750  -0.0000000000  0.0008962400
atom   21.312152    15.401625   -2.602939 Si  0.0   0.0  0.0000531000  -0.0000000000  -0.0008958250
atom   21.625055    15.401625   2.098386 Si  0.0   0.0  0.0009387400  -0.0000000000  0.0010336500
atom   25.401352    15.401625   -4.504603 Si  0.0   0.0  0.0002764100  -0.0000000000  -0.0010973350
atom   -0.595559    15.401625   26.003777 Mg  0.0   0.0  0.0000006700  0.0000000000  0.0000000250
atom   1.708219    19.252032   17.077031 Mg  0.0   0.0  -0.0005460650  0.0000000000  0.0001331700
atom   3.684626    19.252032   23.705961 Mg  0.0   0.0  -0.0011532200  0.0000000000  -0.0001975100
atom   8.961563    15.401625   10.615797 Mg  0.0   0.0  0.0011546000  -0.0000000000  0.0001975900
atom   10.937970    15.401625   17.244727 Mg  0.0   0.0  0.0005474200  0.0000000000  -0.0001330850
atom   1.082145    15.401625   21.140564 Si  0.0   0.0  -0.0002769500  0.0000000000  0.0010963750
atom   4.858441    15.401625   14.537575 Si  0.0   0.0  -0.0009395300  -0.0000000000  -0.0010333000
atom   5.171345    15.401625   19.238901 Si  0.0   0.0  -0.0000551750  -0.0000000000  0.0008962400
atom   7.474844    19.252032   15.082857 Si  0.0   0.0  0.0000531000  0.0000000000  -0.0008958250
atom   7.787748    19.252032   19.784183 Si  0.0   0.0  0.0009387400  -0.0000000000  0.0010336500
atom   11.564045    19.252032   13.181193 Si  0.0   0.0  0.0002764100  -0.0000000000  -0.0010973350
atom   12.923077    19.252032   21.401236 Mg  0.0   0.0  0.0000006700  -0.0000000000  0.0000000250
atom   15.226856    15.401625   12.474490 Mg  0.0   0.0  -0.0005460650  -0.0000000000  0.0001331700
atom   17.203262    15.401625   19.103420 Mg  0.0   0.0  -0.0011532200  0.0000000000  -0.0001975100
atom   22.480199    19.252032   6.013256 Mg  0.0   0.0  0.0011546000  0.0000000000  0.0001975900
atom   24.456606    19.252032   12.642186 Mg  0.0   0.0  0.0005474200  0.0000000000  -0.0001330850
atom   14.600781    19.252032   16.538024 Si  0.0   0.0  -0.0002769500  -0.0000000000  0.0010963750
atom   18.377078    19.252032   9.935034 Si  0.0   0.0  -0.0009395300  0.0000000000  -0.0010333000
atom   18.689981    19.252032   14.636360 Si  0.0   0.0  -0.0000551750  -0.0000000000  0.0008962400
atom   20.993481    15.401625   10.480316 Si  0.0   0.0  0.0000531000  0.0000000000  -0.0008958250
atom   21.306384    15.401625   15.181642 Si  0.0   0.0  0.0009387400  0.0000000000  0.0010336500
atom   25.082681    15.401625   8.578653 Si  0.0   0.0  0.0002764100  -0.0000000000  -0.0010973350
energy -1419.477162455000553
charge 0.000000000000000
end
begin
comment uuid: 460c8df4-9bdc-4911-bcb5-40eb00667a43 
lattice 27.9034359104 -0.0000000015 -7.8194272980
lattice -0.0000000012 23.0334364860 0.0000000000
lattice -0.1123719256 -0.0000000004 25.6518779922
atom   -0.016186    -0.000000   12.668104 Mg  0.0   0.0  -0.0000003850  0.0000000000  0.0000000100
atom   2.122384    3.838906   3.844261 Mg  0.0   0.0  -0.0007167800  -0.0000000000  0.0000216550
atom   4.330083    3.838906   10.328590 Mg  0.0   0.0  -0.0015187000  -0.0000000000  0.0002901550
atom   9.645449    -0.000000   -1.728034 Mg  0.0   0.0  0.0015179300  0.0000000000  -0.0002901700
atom   11.853148    -0.000000   4.756295 Mg  0.0   0.0  0.0007159500  0.0000000000  -0.0000216250
atom   1.576355    -0.000000   7.852998 Si  0.0   0.0  0.0011378950  -0.0000000000  0.0003421050
atom   5.196192    -0.000000   1.213240 Si  0.0   0.0  0.0026873800  0.0000000000  0.0019563900
atom   5.959450    -0.000000   6.044876 Al  0.0   0.0  0.0052037850  0.0000000000  0.0006645750
atom   8.016082    3.838906   2.555680 Al  0.0   0.0  -0.0052044600  0.0000000000  -0.0006645850
atom   8.779340    3.838906   7.387316 Si  0.0   0.0  -0.0026846450  -0.0000000000  -0.0019561850
atom   12.399177    3.838906   0.747558 Si  0.0   0.0  -0.0011379700  0.0000000000  -0.0003423250
atom   13.935532    3.838906   8.758391 Mg  0.0   0.0  -0.0000003850  0.0000000000  0.0000000100
atom   16.074102    -0.000000   -0.065452 Mg  0.0   0.0  -0.0007167800  0.0000000000  0.0000216550
atom   18.281801    -0.000000   6.418876 Mg  0.0   0.0  -0.0015187000  -0.0000000000  0.0002901550
atom   23.597167    3.838906   -5.637747 Mg  0.0   0.0  0.0015179300  -0.0000000000  -0.0002901700
atom   25.804866    3.838906   0.846581 Mg  0.0   0.0  0.0007159500  0.0000000000  -0.0000216250
atom   15.528073    3.838906   3.943285 Si  0.0   0.0  0.0011379000  -0.0000000000  0.0003421050
atom   19.147910    3.838906   -2.696474 Si  0.0   0.0  0.0026873750  0.0000000000  0.0019563900
atom   19.911168    3.838906   2.135163 Al  0.0   0.0  0.0052037850  0.0000000000  0.0006645750
atom   21.967800    -0.000000   -1.354034 Al  0.0   0.0  -0.0052044600  0.0000000000  -0.0006645850
atom   22.731058    -0.000000   3.477603 Si  0.0   0.0  -0.0026846500  0.0000000000  -0.0019561800
atom   26.350895    -0.000000   -3.162156 Si  0.0   0.0  -0.0011379700  -0.0000000000  -0.0003423250
atom   -0.072372    -0.000000   25.494043 Mg  0.0   0.0  -0.0000003850  -0.0000000000  0.0000000100
atom   2.066198    3.838906   16.670200 Mg  0.0   0.0  -0.0007167800  -0.0000000000  0.0000216550
atom   4.273897    3.838906   23.154529 Mg  0.0   0.0  -0.0015187000  0.0000000000  0.0002901550
atom   9.589263    -0.000000   11.097905 Mg  0.0   0.0  0.0015179300  0.0000000000  -0.0002901700
atom   11.796962    -0.000000   17.582234 Mg  0.0   0.0  0.0007159500  -0.0000000000  -0.0000216250
atom   1.520169    -0.000000   20.678937 Si  0.0   0.0  0.0011378950  -0.0000000000  0.0003421050
atom   5.140006    -0.000000   14.039179 Si  0.0   0.0  0.0026873750  0.0000000000  0.0019563900
atom   5.903264    -0.000000   18.870815 Al  0.0   0.0  0.0052037850  0.0000000000  0.0006645750
atom   7.959896    3.838906   15.381619 Al  0.0   0.0  -0.0052044600  -0.0000000000  -0.0006645850
atom   8.723154    3.838906   20.213255 Si  0.0   0.0  -0.0026846500  -0.0000000000  -0.0019561850
atom   12.342991    3.838906   13.573497 Si  0.0   0.0  -0.0011379700  0.0000000000  -0.0003423250
atom   13.879346    3.838906   21.584330 Mg  0.0   0.0  -0.0000003850  -0.0000000000  0.0000000100
atom   16.017916    -0.000000   12.760487 Mg  0.0   0.0  -0.0007167800  0.0000000000  0.0000216550
atom   18.225615    -0.000000   19.244815 Mg  0.0   0.0  -0.0015187000  -0.0000000000  0.0002901550
atom   23.540981    3.838906   7.188192 Mg  0.0   0.0  0.0015179300  -0.0000000000  -0.0002901700
atom   25.748680    3.838906   13.672520 Mg  0.0   0.0  0.0007159500  0.0000000000  -0.0000216250
atom   15.471887    3.838906   16.769224 Si  0.0   0.0  0.0011378950  0.0000000000  0.0003421050
atom   19.091724    3.838906   10.129465 Si  0.0   0.0  0.0026873750  0.0000000000  0.0019563900
atom   19.854982    3.838906   14.961102 Al  0.0   0.0  0.0052037850  0.0000000000  0.0006645750
atom   21.911614    -0.000000   11.471905 Al  0.0   0.0  -0.0052044600  -0.0000000000  -0.0006645850
atom   22.674872    -0.000000   16.303542 Si  0.0   0.0  -0.0026846450  0.0000000000  -0.0019561850
atom   26.294709    -0.000000   9.663783 Si  0.0   0.0  -0.0011379700  -0.0000000000  -0.0003423250
atom   -0.016186    7.677812   12.668104 Mg  0.0   0.0  -0.0000003850  0.0000000000  0.0000000100
atom   2.122384    11.516718   3.844261 Mg  0.0   0.0  -0.0007167800  0.0000000000  0.0000216550
atom   4.330083    11.516718   10.328590 Mg  0.0   0.0  -0.0015187000  -0.0000000000  0.0002901550
atom   9.645449    7.677812   -1.728034 Mg  0.0   0.0  0.0015179300  -0.0000000000  -0.0002901700
atom   11.853148    7.677812   4.756295 Mg  0.0   0.0  0.0007159500  -0.0000000000  -0.0000216250
atom   1.576355    7.677812   7.852998 Si  0.0   0.0  0.0011378950  -0.0000000000  0.0003421050
atom   5.196192    7.677812   1.213240 Si  0.0   0.0  0.0026873800  -0.0000000050  0.0019563900
atom   5.959450    7.677812   6.044876 Al  0.0   0.0  0.0052037850  -0.0000000000  0.0006645750
atom   8.016082    11.516718   2.555680 Al  0.0   0.0  -0.0052044600  -0.0000000000  -0.0006645850
atom   8.779340    11.516718   7.387316 Si  0.0   0.0  -0.0026846450  -0.0000000000  -0.0019561800
atom   12.399177    11.516718   0.747558 Si  0.0   0.0  -0.0011379700  -0.0000000000  -0.0003423250
atom   13.935532    11.516718   8.758391 Mg  0.0   0.0  -0.0000003850  -0.0000000000  0.0000000100
atom   16.074102    7.677812   -0.065452 Mg  0.0   0.0  -0.0007167800  0.0000000000  0.0000216550
atom   18.281801    7.677812   6.418876 Mg  0.0   0.0  -0.0015187000  0.0000000000  0.0002901550
atom   23.597167    11.516718   -5.637747 Mg  0.0   0.0  0.0015179300  0.0000000000  -0.0002901700
atom   25.804866    11.516718   0.846581 Mg  0.0   0.0  0.0007159500  -0.0000000000  -0.0000216250
atom   15.528073    11.516718   3.943285 Si  0.0   0.0  0.0011378950  -0.0000000000  0.0003421050
atom   19.147910    11.516718   -2.696474 Si  0.0   0.0  0.0026873750  -0.0000000000  0.0019563900
atom   19.911168    11.516718   2.135163 Al  0.0   0.0  0.0052037850  -0.0000000000  0.0006645750
atom   21.967800    7.677812   -1.354034 Al  0.0   0.0  -0.0052044600  -0.0000000000  -0.0006645850
atom   22.731058    7.677812   3.477603 Si  0.0   0.0  -0.0026846500  -0.0000000000  -0.0019561850
atom   26.350895    7.677812   -3.162156 Si  0.0   0.0  -0.0011379700  -0.0000000000  -0.0003423250
atom   -0.072372    7.677812   25.494043 Mg  0.0   0.0  -0.0000003850  0.0000000000  0.0000000100
atom   2.066198    11.516718   16.670200 Mg  0.0   0.0  -0.0007167800  -0.0000000000  0.0000216550
atom   4.273897    11.516718   23.154529 Mg  0.0   0.0  -0.0015187000  0.0000000000  0.0002901550
atom   9.589263    7.677812   11.097905 Mg  0.0   0.0  0.0015179300  0.0000000000  -0.0002901700
atom   11.796962    7.677812   17.582234 Mg  0.0   0.0  0.0007159500  -0.0000000000  -0.0000216250
atom   1.520169    7.677812   20.678937 Si  0.0   0.0  0.0011378950  -0.0000000000  0.0003421050
atom   5.140006    7.677812   14.039179 Si  0.0   0.0  0.0026873750  -0.0000000000  0.0019563900
atom   5.903264    7.677812   18.870815 Al  0.0   0.0  0.0052037850  -0.0000000000  0.0006645750
atom   7.959896    11.516718   15.381619 Al  0.0   0.0  -0.0052044600  0.0000000000  -0.0006645850
atom   8.723154    11.516718   20.213255 Si  0.0   0.0  -0.0026846500  0.0000000000  -0.0019561850
atom   12.342991    11.516718   13.573497 Si  0.0   0.0  -0.0011379700  0.0000000000  -0.0003423250
atom   13.879346    11.516718   21.584330 Mg  0.0   0.0  -0.0000003850  -0.0000000000  0.0000000100
atom   16.017916    7.677812   12.760487 Mg  0.0   0.0  -0.0007167800  -0.0000000000  0.0000216550
atom   18.225615    7.677812   19.244815 Mg  0.0   0.0  -0.0015187000  0.0000000000  0.0002901550
atom   23.540981    11.516718   7.188192 Mg  0.0   0.0  0.0015179300  0.0000000000  -0.0002901700
atom   25.748680    11.516718   13.672520 Mg  0.0   0.0  0.0007159500  -0.0000000000  -0.0000216250
atom   15.471887    11.516718   16.769224 Si  0.0   0.0  0.0011378950  0.0000000000  0.0003421050
atom   19.091724    11.516718   10.129465 Si  0.0   0.0  0.0026873750  0.0000000000  0.0019563900
atom   19.854982    11.516718   14.961102 Al  0.0   0.0  0.0052037850  0.0000000000  0.0006645750
atom   21.911614    7.677812   11.471905 Al  0.0   0.0  -0.0052044600  -0.0000000000  -0.0006645850
atom   22.674872    7.677812   16.303542 Si  0.0   0.0  -0.0026846500  0.0000000000  -0.0019561850
atom   26.294709    7.677812   9.663783 Si  0.0   0.0  -0.0011379700  -0.0000000000  -0.0003423250
atom   -0.016186    15.355624   12.668104 Mg  0.0   0.0  -0.0000003850  0.0000000000  0.0000000100
atom   2.122384    19.194530   3.844261 Mg  0.0   0.0  -0.0007167800  0.0000000000  0.0000216550
atom   4.330083    19.194530   10.328590 Mg  0.0   0.0  -0.0015187000  0.0000000000  0.0002901550
atom   9.645449    15.355624   -1.728034 Mg  0.0   0.0  0.0015179300  0.0000000000  -0.0002901700
atom   11.853148    15.355624   4.756295 Mg  0.0   0.0  0.0007159500  0.0000000000  -0.0000216250
atom   1.576355    15.355624   7.852998 Si  0.0   0.0  0.0011378950  0.0000000000  0.0003421050
atom   5.196192    15.355624   1.213240 Si  0.0   0.0  0.0026873750  0.0000000000  0.0019563900
atom   5.959450    15.355624   6.044876 Al  0.0   0.0  0.0052037850  0.0000000000  0.0006645750
atom   8.016082    19.194530   2.555680 Al  0.0   0.0  -0.0052044600  0.0000000000  -0.0006645850
atom   8.779340    19.194530   7.387316 Si  0.0   0.0  -0.0026846450  0.0000000000  -0.0019561850
atom   12.399177    19.194530   0.747558 Si  0.0   0.0  -0.0011379700  0.0000000000  -0.0003423250
atom   13.935532    19.194530   8.758391 Mg  0.0   0.0  -0.0000003850  -0.0000000000  0.0000000100
atom   16.074102    15.355624   -0.065452 Mg  0.0   0.0  -0.0007167800  0.0000000000  0.0000216550
atom   18.281801    15.355624   6.418876 Mg  0.0   0.0  -0.0015187000  0.0000000000  0.0002901550
atom   23.597167    19.194530   -5.637747 Mg  0.0   0.0  0.0015179300  0.0000000000  -0.0002901700
atom   25.804866    19.194530   0.846581 Mg  0.0   0.0  0.0007159500  -0.0000000000  -0.0000216250
atom   15.528073    19.194530   3.943285 Si  0.0   0.0  0.0011378950  -0.0000000000  0.0003421050
atom   19.147910    19.194530   -2.696474 Si  0.0   0.0  0.0026873750  -0.0000000000  0.0019563900
atom   19.911168    19.194530   2.135163 Al  0.0   0.0  0.0052037850  0.0000000000  0.0006645750
atom   21.967800    15.355624   -1.354034 Al  0.0   0.0  -0.0052044600  0.0000000000  -0.0006645850
atom   22.731058    15.355624   3.477603 Si  0.0   0.0  -0.0026846450  0.0000000000  -0.0019561800
atom   26.350895    15.355624   -3.162156 Si  0.0   0.0  -0.0011379700  0.0000000000  -0.0003423250
atom   -0.072372    15.355624   25.494043 Mg  0.0   0.0  -0.0000003850  0.0000000000  0.0000000100
atom   2.066198    19.194530   16.670200 Mg  0.0   0.0  -0.0007167800  0.0000000000  0.0000216550
atom   4.273897    19.194530   23.154529 Mg  0.0   0.0  -0.0015187000  -0.0000000000  0.0002901550
atom   9.589263    15.355624   11.097905 Mg  0.0   0.0  0.0015179300  -0.0000000000  -0.0002901700
atom   11.796962    15.355624   17.582234 Mg  0.0   0.0  0.0007159500  0.0000000000  -0.0000216250
atom   1.520169    15.355624   20.678937 Si  0.0   0.0  0.0011378950  0.0000000000  0.0003421050
atom   5.140006    15.355624   14.039179 Si  0.0   0.0  0.0026873800  0.0000000000  0.0019563900
atom   5.903264    15.355624   18.870815 Al  0.0   0.0  0.0052037850  0.0000000000  0.0006645750
atom   7.959896    19.194530   15.381619 Al  0.0   0.0  -0.0052044600  -0.0000000000  -0.0006645850
atom   8.723154    19.194530   20.213255 Si  0.0   0.0  -0.0026846450  -0.0000000000  -0.0019561800
atom   12.342991    19.194530   13.573497 Si  0.0   0.0  -0.0011379700  -0.0000000000  -0.0003423250
atom   13.879346    19.194530   21.584330 Mg  0.0   0.0  -0.0000003850  -0.0000000000  0.0000000100
atom   16.017916    15.355624   12.760487 Mg  0.0   0.0  -0.0007167800  -0.0000000000  0.0000216550
atom   18.225615    15.355624   19.244815 Mg  0.0   0.0  -0.0015187000  -0.0000000000  0.0002901550
atom   23.540981    19.194530   7.188192 Mg  0.0   0.0  0.0015179300  -0.0000000000  -0.0002901700
atom   25.748680    19.194530   13.672520 Mg  0.0   0.0  0.0007159500  -0.0000000000  -0.0000216250
atom   15.471887    19.194530   16.769224 Si  0.0   0.0  0.0011378950  -0.0000000000  0.0003421050
atom   19.091724    19.194530   10.129465 Si  0.0   0.0  0.0026873750  -0.0000000000  0.0019563900
atom   19.854982    19.194530   14.961102 Al  0.0   0.0  0.0052037850  -0.0000000000  0.0006645750
atom   21.911614    15.355624   11.471905 Al  0.0   0.0  -0.0052044600  0.0000000000  -0.0006645850
atom   22.674872    15.355624   16.303542 Si  0.0   0.0  -0.0026846500  -0.0000000000  -0.0019561850
atom   26.294709    15.355624   9.663783 Si  0.0   0.0  -0.0011379700  0.0000000000  -0.0003423250
energy -1756.925417595000454
charge 0.000000000000000
end
begin
comment uuid: 416f2628-81cf-4292-9552-4b552d87fe5c 
lattice 27.4841493030 0.0000000002 -7.8194519869
lattice -0.0000000003 23.3986497144 -0.0000000009
lattice -0.3015483366 -0.0000000008 24.9774527072
atom   -0.110283    0.000000   12.334752 Al  0.0   0.0  0.0000008700  -0.0000000000  -0.0000004800
atom   1.987287    3.899775   3.579725 Mg  0.0   0.0  -0.0006338100  0.0000000000  0.0002157900
atom   4.114138    3.899775   10.032892 Mg  0.0   0.0  -0.0007706000  0.0000000000  -0.0001595550
atom   9.558146    0.000000   -1.761842 Mg  0.0   0.0  0.0007723900  0.0000000000  0.0001587550
atom   11.684996    0.000000   4.691326 Mg  0.0   0.0  0.0006356400  0.0000000000  -0.0002166200
atom   1.494871    0.000000   7.710119 Si  0.0   0.0  0.0007004900  -0.0000000000  0.0008778500
atom   5.017530    0.000000   1.103125 Si  0.0   0.0  0.0023051700  -0.0000000000  0.0017942300
atom   5.848840    0.000000   5.861336 Al  0.0   0.0  0.0044681450  -0.0000000000  0.0005346650
atom   7.823443    3.899775   2.409714 Al  0.0   0.0  -0.0044663800  -0.0000000000  -0.0005354750
atom   8.654753    3.899775   7.167925 Si  0.0   0.0  -0.0023103150  -0.0000000000  -0.0017921800
atom   12.177412    3.899775   0.560932 Si  0.0   0.0  -0.0007015950  -0.0000000000  -0.0008769800
atom   13.631792    3.899775   8.425026 Al  0.0   0.0  0.0000008700  -0.0000000000  -0.0000004800
atom   15.729362    0.000000   -0.330001 Mg  0.0   0.0  -0.0006338100  0.0000000000  0.0002157950
atom   17.856213    0.000000   6.123166 Mg  0.0   0.0  -0.0007706000  0.0000000000  -0.0001595550
atom   23.300221    3.899775   -5.671568 Mg  0.0   0.0  0.0007723900  0.0000000000  0.0001587550
atom   25.427070    3.899775   0.781600 Mg  0.0   0.0  0.0006356400  -0.0000000000  -0.0002166200
atom   15.236946    3.899775   3.800393 Si  0.0   0.0  0.0007004900  -0.0000000000  0.0008778500
atom   18.759605    3.899775   -2.806601 Si  0.0   0.0  0.0023051700  -0.0000000000  0.0017942300
atom   19.590914    3.899775   1.951610 Al  0.0   0.0  0.0044681400  -0.0000000000  0.0005346650
atom   21.565518    0.000000   -1.500012 Al  0.0   0.0  -0.0044663800  -0.0000000000  -0.0005354750
atom   22.396827    0.000000   3.258199 Si  0.0   0.0  -0.0023103150  -0.0000000000  -0.0017921800
atom   25.919487    0.000000   -3.348794 Si  0.0   0.0  -0.0007015950  -0.0000000000  -0.0008769800
atom   -0.261057    0.000000   24.823478 Al  0.0   0.0  0.0000008700  -0.0000000000  -0.0000004800
atom   1.836513    3.899775   16.068451 Mg  0.0   0.0  -0.0006338100  0.0000000000  0.0002157900
atom   3.963364    3.899775   22.521618 Mg  0.0   0.0  -0.0007706000  0.0000000000  -0.0001595550
atom   9.407372    0.000000   10.726885 Mg  0.0   0.0  0.0007723900  -0.0000000000  0.0001587550
atom   11.534221    0.000000   17.180053 Mg  0.0   0.0  0.0006356400  0.0000000000  -0.0002166200
atom   1.344097    0.000000   20.198845 Si  0.0   0.0  0.0007004900  -0.0000000000  0.0008778500
atom   4.866756    0.000000   13.591851 Si  0.0   0.0  0.0023051700  -0.0000000000  0.0017942300
atom   5.698066    0.000000   18.350062 Al  0.0   0.0  0.0044681400  -0.0000000000  0.0005346600
atom   7.672669    3.899775   14.898440 Al  0.0   0.0  -0.0044663800  0.0000000000  -0.0005354750
atom   8.503978    3.899775   19.656651 Si  0.0   0.0  -0.0023103150  -0.0000000000  -0.0017921800
atom   12.026638    3.899775   13.049658 Si  0.0   0.0  -0.0007015950  0.0000000000  -0.0008769800