
     Program PWSCF v.6.3 starts on 28Feb2020 at  5:30:56 

     This program is part of the open-source Quantum ESPRESSO suite
     for quantum simulation of materials; please cite
         "P. Giannozzi et al., J. Phys.:Condens. Matter 21 395502 (2009);
         "P. Giannozzi et al., J. Phys.:Condens. Matter 29 465901 (2017);
          URL http://www.quantum-espresso.org", 
     in publications or presentations arising from this work. More details at
     http://www.quantum-espresso.org/quote

 *** WARNING: using old-style file format, will disappear from next version ***

     Parallel version (MPI & OpenMP), running on     288 processor cores
     Number of MPI processes:               288
     Threads/MPI process:                     1

     MPI processes distributed on     8 nodes
     K-points division:     npool     =      36
     R & G space division:  proc/nbgrp/npool/nimage =       8
     Reading input from aiida.in
Warning: card &IONS ignored
Warning: card   !PRESS_CONV_THR = 0.05                 ! JUST FOR VOLUME RELAXATIONS ignored
Warning: card / ignored

     Current dimensions of program PWSCF are:
     Max number of different atomic species (ntypx) = 10
     Max number of k-points (npk) =  40000
     Max angular momentum in pseudopotentials (lmaxx) =  3
               file Mg.pbe-n-kjpaw_psl.0.3.0.UPF: wavefunction(s)  3S renormalized
               file Al.pbe-n-kjpaw_psl.1.0.0.UPF: wavefunction(s)  3S 3P renormalized

     Subspace diagonalization in iterative solution of the eigenvalue problem:
     one sub-group per band group will be used
     scalapack distributed-memory algorithm (size of sub-group:  2*  2 procs)

 
     Parallelization info
     --------------------
     sticks:   dense  smooth     PW     G-vecs:    dense   smooth      PW
     Min        3740    1497    390               486920   123201   16474
     Max        3741    1498    391               486925   123204   16481
     Sum       29921   11977   3125              3895379   985619  131827
 


     bravais-lattice index     =            0
     lattice parameter (alat)  =      30.6665  a.u.
     unit-cell volume          =   28839.7502 (a.u.)^3
     number of atoms/cell      =          256
     number of atomic types    =            2
     number of electrons       =       766.00
     number of Kohn-Sham states=          460
     kinetic-energy cutoff     =      40.0000  Ry
     charge density cutoff     =     400.0000  Ry
     convergence threshold     =      1.0E-12
     mixing beta               =       0.4000
     number of iterations used =            8  local-TF  mixing
     Exchange-correlation      = SLA PW PBX PBC ( 1  4  3  4 0 0)

     celldm(1)=  30.666473  celldm(2)=   0.000000  celldm(3)=   0.000000
     celldm(4)=   0.000000  celldm(5)=   0.000000  celldm(6)=   0.000000

     crystal axes: (cart. coord. in units of alat)
               a(1) = (   1.000000   0.000000   0.000000 )  
               a(2) = (   0.000000   1.000000   0.000000 )  
               a(3) = (   0.000000   0.000000   1.000000 )  

     reciprocal axes: (cart. coord. in units 2 pi/alat)
               b(1) = (  1.000000  0.000000  0.000000 )  
               b(2) = (  0.000000  1.000000  0.000000 )  
               b(3) = (  0.000000  0.000000  1.000000 )  


     PseudoPot. # 1 for Mg read from file:
     /users/aglensk/Dropbox/Albert/scripts/dotfiles/scripts/potentials/quantum_espresso/pseudo_SSSPefV1.1_alalloy/Mg.pbe-n-kjpaw_psl.0.3.0.UPF
     MD5 check sum: 24ecedc7f3e3cbe212e682f4413594e4
     Pseudo is Projector augmented-wave + core cor, Zval =  2.0
     Generated using "atomic" code by A. Dal Corso v.5.0.99 svn rev. 10869
     Shape of augmentation charge: PSQ
     Using radial grid of 1129 points,  4 beta functions with: 
                l(1) =   0
                l(2) =   0
                l(3) =   1
                l(4) =   1
     Q(r) pseudized with 0 coefficients 


     PseudoPot. # 2 for Al read from file:
     /users/aglensk/Dropbox/Albert/scripts/dotfiles/scripts/potentials/quantum_espresso/pseudo_SSSPefV1.1_alalloy/Al.pbe-n-kjpaw_psl.1.0.0.UPF
     MD5 check sum: cfc449ca30b5f3223ec38ddd88ac046d
     Pseudo is Projector augmented-wave + core cor, Zval =  3.0
     Generated using "atomic" code by A. Dal Corso v.5.1
     Shape of augmentation charge: PSQ
     Using radial grid of 1135 points,  6 beta functions with: 
                l(1) =   0
                l(2) =   0
                l(3) =   1
                l(4) =   1
                l(5) =   2
                l(6) =   2
     Q(r) pseudized with 0 coefficients 


     atomic species   valence    mass     pseudopotential
        Mg             2.00    24.30500     Mg( 1.00)
        Al             3.00    26.98154     Al( 1.00)

     No symmetry found


                                    s                        frac. trans.

      isym =  1     identity                                     

 cryst.   s( 1) = (     1          0          0      )
                  (     0          1          0      )
                  (     0          0          1      )

 cart.    s( 1) = (  1.0000000  0.0000000  0.0000000 )
                  (  0.0000000  1.0000000  0.0000000 )
                  (  0.0000000  0.0000000  1.0000000 )


   Cartesian axes

     site n.     atom                  positions (alat units)
         1           Mg  tau(   1) = (   0.9987338   0.9987338   0.0000000  )
         2           Al  tau(   2) = (   0.1264806   0.9985198   0.1280368  )
         3           Mg  tau(   3) = (   0.1262648   0.1262648   0.0000000  )
         4           Al  tau(   4) = (   0.9985198   0.1264806   0.1280368  )
         5           Al  tau(   5) = (   0.9997369   0.9997369   0.2508693  )
         6           Al  tau(   6) = (   0.1252630   0.1252630   0.2508693  )
         7           Al  tau(   7) = (   0.1250177   0.9999821   0.3753966  )
         8           Al  tau(   8) = (   0.9999821   0.1250177   0.3753966  )
         9           Al  tau(   9) = (   0.9999709   0.9999709   0.5000000  )
        10           Al  tau(  10) = (   0.1250288   0.1250288   0.5000000  )
        11           Al  tau(  11) = (   0.1250177   0.9999821   0.6246035  )
        12           Al  tau(  12) = (   0.9999821   0.1250177   0.6246035  )
        13           Al  tau(  13) = (   0.9997369   0.9997369   0.7491307  )
        14           Al  tau(  14) = (   0.1252630   0.1252630   0.7491307  )
        15           Al  tau(  15) = (   0.1264806   0.9985198   0.8719632  )
        16           Al  tau(  16) = (   0.9985198   0.1264806   0.8719632  )
        17           Al  tau(  17) = (   0.9984264   0.2516849   0.0000000  )
        18           Al  tau(  18) = (   0.1249948   0.3752689   0.0000000  )
        19           Al  tau(  19) = (   0.1252809   0.2521210   0.1268362  )
        20           Al  tau(  20) = (   0.9997354   0.3757807   0.1252522  )
        21           Al  tau(  21) = (   0.9997654   0.2507174   0.2510517  )
        22           Al  tau(  22) = (   0.1250030   0.3755446   0.2505261  )
        23           Al  tau(  23) = (   0.1250037   0.2500867   0.3752678  )
        24           Al  tau(  24) = (   0.9999922   0.3751508   0.3751583  )
        25           Al  tau(  25) = (   0.9999734   0.2500852   0.5000000  )
        26           Al  tau(  26) = (   0.1250163   0.3750786   0.5000000  )
        27           Al  tau(  27) = (   0.1250037   0.2500867   0.6247323  )
        28           Al  tau(  28) = (   0.9999922   0.3751508   0.6248417  )
        29           Al  tau(  29) = (   0.9997654   0.2507174   0.7489483  )
        30           Al  tau(  30) = (   0.1250030   0.3755446   0.7494739  )
        31           Al  tau(  31) = (   0.1252809   0.2521210   0.8731638  )
        32           Al  tau(  32) = (   0.9997354   0.3757807   0.8747479  )
        33           Al  tau(  33) = (   0.0000038   0.5001694   0.0000000  )
        34           Al  tau(  34) = (   0.1249959   0.6248306   0.0000000  )
        35           Al  tau(  35) = (   0.1250211   0.5001853   0.1250271  )
        36           Al  tau(  36) = (   0.9999785   0.6248147   0.1250271  )
        37           Al  tau(  37) = (   0.9999983   0.5000736   0.2501175  )
        38           Al  tau(  38) = (   0.1250015   0.6249265   0.2501177  )
        39           Al  tau(  39) = (   0.1250156   0.5000811   0.3751039  )
        40           Al  tau(  40) = (   0.9999843   0.6249190   0.3751039  )
        41           Al  tau(  41) = (   0.9999829   0.5000193   0.5000000  )
        42           Al  tau(  42) = (   0.1250171   0.6249809   0.5000000  )
        43           Al  tau(  43) = (   0.1250156   0.5000811   0.6248961  )
        44           Al  tau(  44) = (   0.9999843   0.6249190   0.6248961  )
        45           Al  tau(  45) = (   0.9999983   0.5000736   0.7498825  )
        46           Al  tau(  46) = (   0.1250015   0.6249265   0.7498824  )
        47           Al  tau(  47) = (   0.1250211   0.5001853   0.8749729  )
        48           Al  tau(  48) = (   0.9999785   0.6248147   0.8749729  )
        49           Al  tau(  49) = (   0.0000048   0.7497311   0.0000000  )
        50           Al  tau(  50) = (   0.1265736   0.8733151   0.0000000  )
        51           Al  tau(  51) = (   0.1252644   0.7492194   0.1252523  )
        52           Al  tau(  52) = (   0.9997189   0.8728792   0.1268360  )
        53           Al  tau(  53) = (   0.9999968   0.7494555   0.2505261  )
        54           Al  tau(  54) = (   0.1252345   0.8742826   0.2510518  )
        55           Al  tau(  55) = (   0.1250077   0.7498493   0.3751585  )
        56           Al  tau(  56) = (   0.9999961   0.8749132   0.3752679  )
        57           Al  tau(  57) = (   0.9999837   0.7499216   0.5000000  )
        58           Al  tau(  58) = (   0.1250263   0.8749146   0.5000000  )
        59           Al  tau(  59) = (   0.1250077   0.7498493   0.6248415  )
        60           Al  tau(  60) = (   0.9999961   0.8749132   0.6247321  )
        61           Al  tau(  61) = (   0.9999968   0.7494555   0.7494739  )
        62           Al  tau(  62) = (   0.1252345   0.8742826   0.7489482  )
        63           Al  tau(  63) = (   0.1252644   0.7492194   0.8747477  )
        64           Al  tau(  64) = (   0.9997189   0.8728792   0.8731640  )
        65           Al  tau(  65) = (   0.2516849   0.9984264   0.0000000  )
        66           Al  tau(  66) = (   0.3752689   0.1249948   0.0000000  )
        67           Al  tau(  67) = (   0.3757807   0.9997354   0.1252522  )
        68           Al  tau(  68) = (   0.2521210   0.1252809   0.1268362  )
        69           Al  tau(  69) = (   0.2507174   0.9997654   0.2510517  )
        70           Al  tau(  70) = (   0.3755446   0.1250030   0.2505261  )
        71           Al  tau(  71) = (   0.3751508   0.9999922   0.3751583  )
        72           Al  tau(  72) = (   0.2500867   0.1250037   0.3752678  )
        73           Al  tau(  73) = (   0.2500852   0.9999734   0.5000000  )
        74           Al  tau(  74) = (   0.3750786   0.1250163   0.5000000  )
        75           Al  tau(  75) = (   0.3751508   0.9999922   0.6248417  )
        76           Al  tau(  76) = (   0.2500867   0.1250037   0.6247323  )
        77           Al  tau(  77) = (   0.2507174   0.9997654   0.7489483  )
        78           Al  tau(  78) = (   0.3755446   0.1250030   0.7494739  )
        79           Al  tau(  79) = (   0.3757807   0.9997354   0.8747479  )
        80           Al  tau(  80) = (   0.2521210   0.1252809   0.8731638  )
        81           Al  tau(  81) = (   0.2520429   0.2520429   0.0000000  )
        82           Al  tau(  82) = (   0.3755490   0.3755490   0.0000000  )
        83           Al  tau(  83) = (   0.3757331   0.2503380   0.1252722  )
        84           Al  tau(  84) = (   0.2503380   0.3757331   0.1252722  )
        85           Al  tau(  85) = (   0.2503536   0.2503536   0.2507044  )
        86           Al  tau(  86) = (   0.3750560   0.3750560   0.2500473  )
        87           Al  tau(  87) = (   0.3750657   0.2499930   0.3750761  )
        88           Al  tau(  88) = (   0.2499930   0.3750657   0.3750761  )
        89           Al  tau(  89) = (   0.2500411   0.2500411   0.5000000  )
        90           Al  tau(  90) = (   0.3750256   0.3750256   0.5000000  )
        91           Al  tau(  91) = (   0.3750657   0.2499930   0.6249239  )
        92           Al  tau(  92) = (   0.2499930   0.3750657   0.6249239  )
        93           Al  tau(  93) = (   0.2503536   0.2503536   0.7492956  )
        94           Al  tau(  94) = (   0.3750560   0.3750560   0.7499527  )
        95           Al  tau(  95) = (   0.3757331   0.2503380   0.8747278  )
        96           Al  tau(  96) = (   0.2503380   0.3757331   0.8747278  )
        97           Al  tau(  97) = (   0.2500447   0.5001883   0.0000000  )
        98           Al  tau(  98) = (   0.3751300   0.6249193   0.0000000  )
        99           Al  tau(  99) = (   0.3750903   0.5000796   0.1250185  )
       100           Al  tau( 100) = (   0.2500926   0.6249190   0.1250348  )
       101           Al  tau( 101) = (   0.2500168   0.5000780   0.2500914  )
       102           Al  tau( 102) = (   0.3750103   0.6250044   0.2500180  )
       103           Al  tau( 103) = (   0.3749986   0.4999905   0.3749984  )
       104           Al  tau( 104) = (   0.2500067   0.6250117   0.3750089  )
       105           Al  tau( 105) = (   0.2500501   0.5000271   0.5000000  )
       106           Al  tau( 106) = (   0.3750425   0.6249908   0.5000000  )
       107           Al  tau( 107) = (   0.3749986   0.4999905   0.6250016  )
       108           Al  tau( 108) = (   0.2500067   0.6250117   0.6249911  )
       109           Al  tau( 109) = (   0.2500168   0.5000780   0.7499086  )
       110           Al  tau( 110) = (   0.3750103   0.6250044   0.7499820  )
       111           Al  tau( 111) = (   0.3750903   0.5000796   0.8749815  )
       112           Al  tau( 112) = (   0.2500926   0.6249190   0.8749652  )
       113           Al  tau( 113) = (   0.2504740   0.7493305   0.0000000  )
       114           Al  tau( 114) = (   0.3756697   0.8745261   0.0000000  )
       115           Al  tau( 115) = (   0.3751565   0.7498437   0.1250249  )
       116           Al  tau( 116) = (   0.2508176   0.8741825   0.1254524  )
       117           Al  tau( 117) = (   0.2500511   0.7498861   0.2501059  )
       118           Al  tau( 118) = (   0.3751140   0.8749489   0.2501058  )
       119           Al  tau( 119) = (   0.3749831   0.7500169   0.3749839  )
       120           Al  tau( 120) = (   0.2500772   0.8749227   0.3751454  )
       121           Al  tau( 121) = (   0.2500349   0.7499645   0.5000000  )
       122           Al  tau( 122) = (   0.3750354   0.8749650   0.5000000  )
       123           Al  tau( 123) = (   0.3749831   0.7500169   0.6250161  )
       124           Al  tau( 124) = (   0.2500772   0.8749227   0.6248546  )
       125           Al  tau( 125) = (   0.2500511   0.7498861   0.7498941  )
       126           Al  tau( 126) = (   0.3751140   0.8749489   0.7498942  )
       127           Al  tau( 127) = (   0.3751565   0.7498437   0.8749751  )
       128           Al  tau( 128) = (   0.2508176   0.8741825   0.8745476  )
       129           Al  tau( 129) = (   0.5001694   0.0000038   0.0000000  )
       130           Al  tau( 130) = (   0.6248306   0.1249959   0.0000000  )
       131           Al  tau( 131) = (   0.6248147   0.9999785   0.1250271  )
       132           Al  tau( 132) = (   0.5001853   0.1250211   0.1250271  )
       133           Al  tau( 133) = (   0.5000736   0.9999983   0.2501175  )
       134           Al  tau( 134) = (   0.6249265   0.1250015   0.2501177  )
       135           Al  tau( 135) = (   0.6249190   0.9999843   0.3751039  )
       136           Al  tau( 136) = (   0.5000811   0.1250156   0.3751039  )
       137           Al  tau( 137) = (   0.5000193   0.9999829   0.5000000  )
       138           Al  tau( 138) = (   0.6249809   0.1250171   0.5000000  )
       139           Al  tau( 139) = (   0.6249190   0.9999843   0.6248961  )
       140           Al  tau( 140) = (   0.5000811   0.1250156   0.6248961  )
       141           Al  tau( 141) = (   0.5000736   0.9999983   0.7498825  )
       142           Al  tau( 142) = (   0.6249265   0.1250015   0.7498824  )
       143           Al  tau( 143) = (   0.6248147   0.9999785   0.8749729  )
       144           Al  tau( 144) = (   0.5001853   0.1250211   0.8749729  )
       145           Al  tau( 145) = (   0.5001883   0.2500447   0.0000000  )
       146           Al  tau( 146) = (   0.6249193   0.3751300   0.0000000  )
       147           Al  tau( 147) = (   0.6249190   0.2500926   0.1250348  )
       148           Al  tau( 148) = (   0.5000796   0.3750903   0.1250185  )
       149           Al  tau( 149) = (   0.5000780   0.2500168   0.2500914  )
       150           Al  tau( 150) = (   0.6250044   0.3750103   0.2500180  )
       151           Al  tau( 151) = (   0.6250117   0.2500067   0.3750089  )
       152           Al  tau( 152) = (   0.4999905   0.3749986   0.3749984  )
       153           Al  tau( 153) = (   0.5000271   0.2500501   0.5000000  )
       154           Al  tau( 154) = (   0.6249908   0.3750425   0.5000000  )
       155           Al  tau( 155) = (   0.6250117   0.2500067   0.6249911  )
       156           Al  tau( 156) = (   0.4999905   0.3749986   0.6250016  )
       157           Al  tau( 157) = (   0.5000780   0.2500168   0.7499086  )
       158           Al  tau( 158) = (   0.6250044   0.3750103   0.7499820  )
       159           Al  tau( 159) = (   0.6249190   0.2500926   0.8749652  )
       160           Al  tau( 160) = (   0.5000796   0.3750903   0.8749815  )
       161           Al  tau( 161) = (   0.5000799   0.5000799   0.0000000  )
       162           Al  tau( 162) = (   0.6249205   0.6249205   0.0000000  )
       163           Al  tau( 163) = (   0.6249880   0.5000123   0.1250283  )
       164           Al  tau( 164) = (   0.5000123   0.6249880   0.1250283  )
       165           Al  tau( 165) = (   0.4999931   0.4999931   0.2500132  )
       166           Al  tau( 166) = (   0.6250070   0.6250070   0.2500130  )
       167           Al  tau( 167) = (   0.6249853   0.5000146   0.3750260  )
       168           Al  tau( 168) = (   0.5000146   0.6249853   0.3750260  )
       169           Al  tau( 169) = (   0.5000057   0.5000057   0.5000000  )
       170           Al  tau( 170) = (   0.6249942   0.6249942   0.5000000  )
       171           Al  tau( 171) = (   0.6249853   0.5000146   0.6249740  )
       172           Al  tau( 172) = (   0.5000146   0.6249853   0.6249740  )
       173           Al  tau( 173) = (   0.4999931   0.4999931   0.7499868  )
       174           Al  tau( 174) = (   0.6250070   0.6250070   0.7499870  )
       175           Al  tau( 175) = (   0.6249880   0.5000123   0.8749717  )
       176           Al  tau( 176) = (   0.5000123   0.6249880   0.8749717  )
       177           Al  tau( 177) = (   0.5000810   0.7498702   0.0000000  )
       178           Al  tau( 178) = (   0.6248118   0.8749550   0.0000000  )
       179           Al  tau( 179) = (   0.6249205   0.7499097   0.1250183  )
       180           Al  tau( 180) = (   0.5000811   0.8749073   0.1250347  )
       181           Al  tau( 181) = (   0.4999957   0.7499898   0.2500179  )
       182           Al  tau( 182) = (   0.6249221   0.8749832   0.2500912  )
       183           Al  tau( 183) = (   0.6250096   0.7500015   0.3749982  )
       184           Al  tau( 184) = (   0.4999884   0.8749933   0.3750087  )
       185           Al  tau( 185) = (   0.5000091   0.7499575   0.5000000  )
       186           Al  tau( 186) = (   0.6249732   0.8749500   0.5000000  )
       187           Al  tau( 187) = (   0.6250096   0.7500015   0.6250018  )
       188           Al  tau( 188) = (   0.4999884   0.8749933   0.6249913  )
       189           Al  tau( 189) = (   0.4999957   0.7499898   0.7499821  )
       190           Al  tau( 190) = (   0.6249221   0.8749832   0.7499088  )
       191           Al  tau( 191) = (   0.6249205   0.7499097   0.8749817  )
       192           Al  tau( 192) = (   0.5000811   0.8749073   0.8749653  )
       193           Al  tau( 193) = (   0.7497311   0.0000048   0.0000000  )
       194           Al  tau( 194) = (   0.8733151   0.1265736   0.0000000  )
       195           Al  tau( 195) = (   0.8728792   0.9997189   0.1268360  )
       196           Al  tau( 196) = (   0.7492194   0.1252644   0.1252523  )
       197           Al  tau( 197) = (   0.7494555   0.9999968   0.2505261  )
       198           Al  tau( 198) = (   0.8742826   0.1252345   0.2510518  )
       199           Al  tau( 199) = (   0.8749132   0.9999961   0.3752679  )
       200           Al  tau( 200) = (   0.7498493   0.1250077   0.3751585  )
       201           Al  tau( 201) = (   0.7499216   0.9999837   0.5000000  )
       202           Al  tau( 202) = (   0.8749146   0.1250263   0.5000000  )
       203           Al  tau( 203) = (   0.8749132   0.9999961   0.6247321  )
       204           Al  tau( 204) = (   0.7498493   0.1250077   0.6248415  )
       205           Al  tau( 205) = (   0.7494555   0.9999968   0.7494739  )
       206           Al  tau( 206) = (   0.8742826   0.1252345   0.7489482  )
       207           Al  tau( 207) = (   0.8728792   0.9997189   0.8731640  )
       208           Al  tau( 208) = (   0.7492194   0.1252644   0.8747477  )
       209           Al  tau( 209) = (   0.7493305   0.2504740   0.0000000  )
       210           Al  tau( 210) = (   0.8745261   0.3756697   0.0000000  )
       211           Al  tau( 211) = (   0.8741825   0.2508176   0.1254524  )
       212           Al  tau( 212) = (   0.7498437   0.3751565   0.1250249  )
       213           Al  tau( 213) = (   0.7498861   0.2500511   0.2501059  )
       214           Al  tau( 214) = (   0.8749489   0.3751140   0.2501058  )
       215           Al  tau( 215) = (   0.8749227   0.2500772   0.3751454  )
       216           Al  tau( 216) = (   0.7500169   0.3749831   0.3749839  )
       217           Al  tau( 217) = (   0.7499645   0.2500349   0.5000000  )
       218           Al  tau( 218) = (   0.8749650   0.3750354   0.5000000  )
       219           Al  tau( 219) = (   0.8749227   0.2500772   0.6248546  )
       220           Al  tau( 220) = (   0.7500169   0.3749831   0.6250161  )
       221           Al  tau( 221) = (   0.7498861   0.2500511   0.7498941  )
       222           Al  tau( 222) = (   0.8749489   0.3751140   0.7498942  )
       223           Al  tau( 223) = (   0.8741825   0.2508176   0.8745476  )
       224           Al  tau( 224) = (   0.7498437   0.3751565   0.8749751  )
       225           Al  tau( 225) = (   0.7498702   0.5000810   0.0000000  )
       226           Al  tau( 226) = (   0.8749550   0.6248118   0.0000000  )
       227           Al  tau( 227) = (   0.8749073   0.5000811   0.1250347  )
       228           Al  tau( 228) = (   0.7499097   0.6249205   0.1250183  )
       229           Al  tau( 229) = (   0.7499898   0.4999957   0.2500179  )
       230           Al  tau( 230) = (   0.8749832   0.6249221   0.2500912  )
       231           Al  tau( 231) = (   0.8749933   0.4999884   0.3750087  )
       232           Al  tau( 232) = (   0.7500015   0.6250096   0.3749982  )
       233           Al  tau( 233) = (   0.7499575   0.5000091   0.5000000  )
       234           Al  tau( 234) = (   0.8749500   0.6249732   0.5000000  )
       235           Al  tau( 235) = (   0.8749933   0.4999884   0.6249913  )
       236           Al  tau( 236) = (   0.7500015   0.6250096   0.6250018  )
       237           Al  tau( 237) = (   0.7499898   0.4999957   0.7499821  )
       238           Al  tau( 238) = (   0.8749832   0.6249221   0.7499088  )
       239           Al  tau( 239) = (   0.8749073   0.5000811   0.8749653  )
       240           Al  tau( 240) = (   0.7499097   0.6249205   0.8749817  )
       241           Al  tau( 241) = (   0.7494510   0.7494510   0.0000000  )
       242           Al  tau( 242) = (   0.8729575   0.8729575   0.0000000  )
       243           Al  tau( 243) = (   0.8746618   0.7492669   0.1252721  )
       244           Al  tau( 244) = (   0.7492669   0.8746618   0.1252721  )
       245           Al  tau( 245) = (   0.7499440   0.7499440   0.2500471  )
       246           Al  tau( 246) = (   0.8746463   0.8746463   0.2507044  )
       247           Al  tau( 247) = (   0.8750071   0.7499344   0.3750761  )
       248           Al  tau( 248) = (   0.7499344   0.8750071   0.3750761  )
       249           Al  tau( 249) = (   0.7499747   0.7499747   0.5000000  )
       250           Al  tau( 250) = (   0.8749590   0.8749590   0.5000000  )
       251           Al  tau( 251) = (   0.8750071   0.7499344   0.6249239  )
       252           Al  tau( 252) = (   0.7499344   0.8750071   0.6249239  )
       253           Al  tau( 253) = (   0.7499440   0.7499440   0.7499529  )
       254           Al  tau( 254) = (   0.8746463   0.8746463   0.7492957  )
       255           Al  tau( 255) = (   0.8746618   0.7492669   0.8747279  )
       256           Al  tau( 256) = (   0.7492669   0.8746618   0.8747279  )

   Crystallographic axes

     site n.     atom                  positions (cryst. coord.)
         1           Mg  tau(   1) = (  0.9987338  0.9987338  0.0000000  )
         2           Al  tau(   2) = (  0.1264806  0.9985198  0.1280368  )
         3           Mg  tau(   3) = (  0.1262648  0.1262648  0.0000000  )
         4           Al  tau(   4) = (  0.9985198  0.1264806  0.1280368  )
         5           Al  tau(   5) = (  0.9997369  0.9997369  0.2508693  )
         6           Al  tau(   6) = (  0.1252630  0.1252630  0.2508693  )
         7           Al  tau(   7) = (  0.1250177  0.9999821  0.3753966  )
         8           Al  tau(   8) = (  0.9999821  0.1250177  0.3753966  )
         9           Al  tau(   9) = (  0.9999709  0.9999709  0.5000000  )
        10           Al  tau(  10) = (  0.1250288  0.1250288  0.5000000  )
        11           Al  tau(  11) = (  0.1250177  0.9999821  0.6246035  )
        12           Al  tau(  12) = (  0.9999821  0.1250177  0.6246035  )
        13           Al  tau(  13) = (  0.9997369  0.9997369  0.7491307  )
        14           Al  tau(  14) = (  0.1252630  0.1252630  0.7491307  )
        15           Al  tau(  15) = (  0.1264806  0.9985198  0.8719632  )
        16           Al  tau(  16) = (  0.9985198  0.1264806  0.8719632  )
        17           Al  tau(  17) = (  0.9984264  0.2516849  0.0000000  )
        18           Al  tau(  18) = (  0.1249948  0.3752689  0.0000000  )
        19           Al  tau(  19) = (  0.1252809  0.2521210  0.1268362  )
        20           Al  tau(  20) = (  0.9997354  0.3757807  0.1252522  )
        21           Al  tau(  21) = (  0.9997654  0.2507174  0.2510517  )
        22           Al  tau(  22) = (  0.1250030  0.3755446  0.2505261  )
        23           Al  tau(  23) = (  0.1250037  0.2500867  0.3752678  )
        24           Al  tau(  24) = (  0.9999922  0.3751508  0.3751583  )
        25           Al  tau(  25) = (  0.9999734  0.2500852  0.5000000  )
        26           Al  tau(  26) = (  0.1250163  0.3750786  0.5000000  )
        27           Al  tau(  27) = (  0.1250037  0.2500867  0.6247323  )
        28           Al  tau(  28) = (  0.9999922  0.3751508  0.6248417  )
        29           Al  tau(  29) = (  0.9997654  0.2507174  0.7489483  )
        30           Al  tau(  30) = (  0.1250030  0.3755446  0.7494739  )
        31           Al  tau(  31) = (  0.1252809  0.2521210  0.8731638  )
        32           Al  tau(  32) = (  0.9997354  0.3757807  0.8747479  )
        33           Al  tau(  33) = (  0.0000038  0.5001694  0.0000000  )
        34           Al  tau(  34) = (  0.1249959  0.6248306  0.0000000  )
        35           Al  tau(  35) = (  0.1250211  0.5001853  0.1250271  )
        36           Al  tau(  36) = (  0.9999785  0.6248147  0.1250271  )
        37           Al  tau(  37) = (  0.9999983  0.5000736  0.2501175  )
        38           Al  tau(  38) = (  0.1250015  0.6249265  0.2501177  )
        39           Al  tau(  39) = (  0.1250156  0.5000811  0.3751039  )
        40           Al  tau(  40) = (  0.9999843  0.6249190  0.3751039  )
        41           Al  tau(  41) = (  0.9999829  0.5000193  0.5000000  )
        42           Al  tau(  42) = (  0.1250171  0.6249809  0.5000000  )
        43           Al  tau(  43) = (  0.1250156  0.5000811  0.6248961  )
        44           Al  tau(  44) = (  0.9999843  0.6249190  0.6248961  )
        45           Al  tau(  45) = (  0.9999983  0.5000736  0.7498825  )
        46           Al  tau(  46) = (  0.1250015  0.6249265  0.7498824  )
        47           Al  tau(  47) = (  0.1250211  0.5001853  0.8749729  )
        48           Al  tau(  48) = (  0.9999785  0.6248147  0.8749729  )
        49           Al  tau(  49) = (  0.0000048  0.7497311  0.0000000  )
        50           Al  tau(  50) = (  0.1265736  0.8733151  0.0000000  )
        51           Al  tau(  51) = (  0.1252644  0.7492194  0.1252523  )
        52           Al  tau(  52) = (  0.9997189  0.8728792  0.1268360  )
        53           Al  tau(  53) = (  0.9999968  0.7494555  0.2505261  )
        54           Al  tau(  54) = (  0.1252345  0.8742826  0.2510518  )
        55           Al  tau(  55) = (  0.1250077  0.7498493  0.3751585  )
        56           Al  tau(  56) = (  0.9999961  0.8749132  0.3752679  )
        57           Al  tau(  57) = (  0.9999837  0.7499216  0.5000000  )
        58           Al  tau(  58) = (  0.1250263  0.8749146  0.5000000  )
        59           Al  tau(  59) = (  0.1250077  0.7498493  0.6248415  )
        60           Al  tau(  60) = (  0.9999961  0.8749132  0.6247321  )
        61           Al  tau(  61) = (  0.9999968  0.7494555  0.7494739  )
        62           Al  tau(  62) = (  0.1252345  0.8742826  0.7489482  )
        63           Al  tau(  63) = (  0.1252644  0.7492194  0.8747477  )
        64           Al  tau(  64) = (  0.9997189  0.8728792  0.8731640  )
        65           Al  tau(  65) = (  0.2516849  0.9984264  0.0000000  )
        66           Al  tau(  66) = (  0.3752689  0.1249948  0.0000000  )
        67           Al  tau(  67) = (  0.3757807  0.9997354  0.1252522  )
        68           Al  tau(  68) = (  0.2521210  0.1252809  0.1268362  )
        69           Al  tau(  69) = (  0.2507174  0.9997654  0.2510517  )
        70           Al  tau(  70) = (  0.3755446  0.1250030  0.2505261  )
        71           Al  tau(  71) = (  0.3751508  0.9999922  0.3751583  )
        72           Al  tau(  72) = (  0.2500867  0.1250037  0.3752678  )
        73           Al  tau(  73) = (  0.2500852  0.9999734  0.5000000  )
        74           Al  tau(  74) = (  0.3750786  0.1250163  0.5000000  )
        75           Al  tau(  75) = (  0.3751508  0.9999922  0.6248417  )
        76           Al  tau(  76) = (  0.2500867  0.1250037  0.6247323  )
        77           Al  tau(  77) = (  0.2507174  0.9997654  0.7489483  )
        78           Al  tau(  78) = (  0.3755446  0.1250030  0.7494739  )
        79           Al  tau(  79) = (  0.3757807  0.9997354  0.8747479  )
        80           Al  tau(  80) = (  0.2521210  0.1252809  0.8731638  )
        81           Al  tau(  81) = (  0.2520429  0.2520429  0.0000000  )
        82           Al  tau(  82) = (  0.3755490  0.3755490  0.0000000  )
        83           Al  tau(  83) = (  0.3757331  0.2503380  0.1252722  )
        84           Al  tau(  84) = (  0.2503380  0.3757331  0.1252722  )
        85           Al  tau(  85) = (  0.2503536  0.2503536  0.2507044  )
        86           Al  tau(  86) = (  0.3750560  0.3750560  0.2500473  )
        87           Al  tau(  87) = (  0.3750657  0.2499930  0.3750761  )
        88           Al  tau(  88) = (  0.2499930  0.3750657  0.3750761  )
        89           Al  tau(  89) = (  0.2500411  0.2500411  0.5000000  )
        90           Al  tau(  90) = (  0.3750256  0.3750256  0.5000000  )
        91           Al  tau(  91) = (  0.3750657  0.2499930  0.6249239  )
        92           Al  tau(  92) = (  0.2499930  0.3750657  0.6249239  )
        93           Al  tau(  93) = (  0.2503536  0.2503536  0.7492956  )
        94           Al  tau(  94) = (  0.3750560  0.3750560  0.7499527  )
        95           Al  tau(  95) = (  0.3757331  0.2503380  0.8747278  )
        96           Al  tau(  96) = (  0.2503380  0.3757331  0.8747278  )
        97           Al  tau(  97) = (  0.2500447  0.5001883  0.0000000  )
        98           Al  tau(  98) = (  0.3751300  0.6249193  0.0000000  )
        99           Al  tau(  99) = (  0.3750903  0.5000796  0.1250185  )
       100           Al  tau( 100) = (  0.2500926  0.6249190  0.1250348  )
       101           Al  tau( 101) = (  0.2500168  0.5000780  0.2500914  )
       102           Al  tau( 102) = (  0.3750103  0.6250044  0.2500180  )
       103           Al  tau( 103) = (  0.3749986  0.4999905  0.3749984  )
       104           Al  tau( 104) = (  0.2500067  0.6250117  0.3750089  )
       105           Al  tau( 105) = (  0.2500501  0.5000271  0.5000000  )
       106           Al  tau( 106) = (  0.3750425  0.6249908  0.5000000  )
       107           Al  tau( 107) = (  0.3749986  0.4999905  0.6250016  )
       108           Al  tau( 108) = (  0.2500067  0.6250117  0.6249911  )
       109           Al  tau( 109) = (  0.2500168  0.5000780  0.7499086  )
       110           Al  tau( 110) = (  0.3750103  0.6250044  0.7499820  )
       111           Al  tau( 111) = (  0.3750903  0.5000796  0.8749815  )
       112           Al  tau( 112) = (  0.2500926  0.6249190  0.8749652  )
       113           Al  tau( 113) = (  0.2504740  0.7493305  0.0000000  )
       114           Al  tau( 114) = (  0.3756697  0.8745261  0.0000000  )
       115           Al  tau( 115) = (  0.3751565  0.7498437  0.1250249  )
       116           Al  tau( 116) = (  0.2508176  0.8741825  0.1254524  )
       117           Al  tau( 117) = (  0.2500511  0.7498861  0.2501059  )
       118           Al  tau( 118) = (  0.3751140  0.8749489  0.2501058  )
       119           Al  tau( 119) = (  0.3749831  0.7500169  0.3749839  )
       120           Al  tau( 120) = (  0.2500772  0.8749227  0.3751454  )
       121           Al  tau( 121) = (  0.2500349  0.7499645  0.5000000  )
       122           Al  tau( 122) = (  0.3750354  0.8749650  0.5000000  )
       123           Al  tau( 123) = (  0.3749831  0.7500169  0.6250161  )
       124           Al  tau( 124) = (  0.2500772  0.8749227  0.6248546  )
       125           Al  tau( 125) = (  0.2500511  0.7498861  0.7498941  )
       126           Al  tau( 126) = (  0.3751140  0.8749489  0.7498942  )
       127           Al  tau( 127) = (  0.3751565  0.7498437  0.8749751  )
       128           Al  tau( 128) = (  0.2508176  0.8741825  0.8745476  )
       129           Al  tau( 129) = (  0.5001694  0.0000038  0.0000000  )
       130           Al  tau( 130) = (  0.6248306  0.1249959  0.0000000  )
       131           Al  tau( 131) = (  0.6248147  0.9999785  0.1250271  )
       132           Al  tau( 132) = (  0.5001853  0.1250211  0.1250271  )
       133           Al  tau( 133) = (  0.5000736  0.9999983  0.2501175  )
       134           Al  tau( 134) = (  0.6249265  0.1250015  0.2501177  )
       135           Al  tau( 135) = (  0.6249190  0.9999843  0.3751039  )
       136           Al  tau( 136) = (  0.5000811  0.1250156  0.3751039  )
       137           Al  tau( 137) = (  0.5000193  0.9999829  0.5000000  )
       138           Al  tau( 138) = (  0.6249809  0.1250171  0.5000000  )
       139           Al  tau( 139) = (  0.6249190  0.9999843  0.6248961  )
       140           Al  tau( 140) = (  0.5000811  0.1250156  0.6248961  )
       141           Al  tau( 141) = (  0.5000736  0.9999983  0.7498825  )
       142           Al  tau( 142) = (  0.6249265  0.1250015  0.7498824  )
       143           Al  tau( 143) = (  0.6248147  0.9999785  0.8749729  )
       144           Al  tau( 144) = (  0.5001853  0.1250211  0.8749729  )
       145           Al  tau( 145) = (  0.5001883  0.2500447  0.0000000  )
       146           Al  tau( 146) = (  0.6249193  0.3751300  0.0000000  )
       147           Al  tau( 147) = (  0.6249190  0.2500926  0.1250348  )
       148           Al  tau( 148) = (  0.5000796  0.3750903  0.1250185  )
       149           Al  tau( 149) = (  0.5000780  0.2500168  0.2500914  )
       150           Al  tau( 150) = (  0.6250044  0.3750103  0.2500180  )
       151           Al  tau( 151) = (  0.6250117  0.2500067  0.3750089  )
       152           Al  tau( 152) = (  0.4999905  0.3749986  0.3749984  )
       153           Al  tau( 153) = (  0.5000271  0.2500501  0.5000000  )
       154           Al  tau( 154) = (  0.6249908  0.3750425  0.5000000  )
       155           Al  tau( 155) = (  0.6250117  0.2500067  0.6249911  )
       156           Al  tau( 156) = (  0.4999905  0.3749986  0.6250016  )
       157           Al  tau( 157) = (  0.5000780  0.2500168  0.7499086  )
       158           Al  tau( 158) = (  0.6250044  0.3750103  0.7499820  )
       159           Al  tau( 159) = (  0.6249190  0.2500926  0.8749652  )
       160           Al  tau( 160) = (  0.5000796  0.3750903  0.8749815  )
       161           Al  tau( 161) = (  0.5000799  0.5000799  0.0000000  )
       162           Al  tau( 162) = (  0.6249205  0.6249205  0.0000000  )
       163           Al  tau( 163) = (  0.6249880  0.5000123  0.1250283  )
       164           Al  tau( 164) = (  0.5000123  0.6249880  0.1250283  )
       165           Al  tau( 165) = (  0.4999931  0.4999931  0.2500132  )
       166           Al  tau( 166) = (  0.6250070  0.6250070  0.2500130  )
       167           Al  tau( 167) = (  0.6249853  0.5000146  0.3750260  )
       168           Al  tau( 168) = (  0.5000146  0.6249853  0.3750260  )
       169           Al  tau( 169) = (  0.5000057  0.5000057  0.5000000  )
       170           Al  tau( 170) = (  0.6249942  0.6249942  0.5000000  )
       171           Al  tau( 171) = (  0.6249853  0.5000146  0.6249740  )
       172           Al  tau( 172) = (  0.5000146  0.6249853  0.6249740  )
       173           Al  tau( 173) = (  0.4999931  0.4999931  0.7499868  )
       174           Al  tau( 174) = (  0.6250070  0.6250070  0.7499870  )
       175           Al  tau( 175) = (  0.6249880  0.5000123  0.8749717  )
       176           Al  tau( 176) = (  0.5000123  0.6249880  0.8749717  )
       177           Al  tau( 177) = (  0.5000810  0.7498702  0.0000000  )
       178           Al  tau( 178) = (  0.6248118  0.8749550  0.0000000  )
       179           Al  tau( 179) = (  0.6249205  0.7499097  0.1250183  )
       180           Al  tau( 180) = (  0.5000811  0.8749073  0.1250347  )
       181           Al  tau( 181) = (  0.4999957  0.7499898  0.2500179  )
       182           Al  tau( 182) = (  0.6249221  0.8749832  0.2500912  )
       183           Al  tau( 183) = (  0.6250096  0.7500015  0.3749982  )
       184           Al  tau( 184) = (  0.4999884  0.8749933  0.3750087  )
       185           Al  tau( 185) = (  0.5000091  0.7499575  0.5000000  )
       186           Al  tau( 186) = (  0.6249732  0.8749500  0.5000000  )
       187           Al  tau( 187) = (  0.6250096  0.7500015  0.6250018  )
       188           Al  tau( 188) = (  0.4999884  0.8749933  0.6249913  )
       189           Al  tau( 189) = (  0.4999957  0.7499898  0.7499821  )
       190           Al  tau( 190) = (  0.6249221  0.8749832  0.7499088  )
       191           Al  tau( 191) = (  0.6249205  0.7499097  0.8749817  )
       192           Al  tau( 192) = (  0.5000811  0.8749073  0.8749653  )
       193           Al  tau( 193) = (  0.7497311  0.0000048  0.0000000  )
       194           Al  tau( 194) = (  0.8733151  0.1265736  0.0000000  )
       195           Al  tau( 195) = (  0.8728792  0.9997189  0.1268360  )
       196           Al  tau( 196) = (  0.7492194  0.1252644  0.1252523  )
       197           Al  tau( 197) = (  0.7494555  0.9999968  0.2505261  )
       198           Al  tau( 198) = (  0.8742826  0.1252345  0.2510518  )
       199           Al  tau( 199) = (  0.8749132  0.9999961  0.3752679  )
       200           Al  tau( 200) = (  0.7498493  0.1250077  0.3751585  )
       201           Al  tau( 201) = (  0.7499216  0.9999837  0.5000000  )
       202           Al  tau( 202) = (  0.8749146  0.1250263  0.5000000  )
       203           Al  tau( 203) = (  0.8749132  0.9999961  0.6247321  )
       204           Al  tau( 204) = (  0.7498493  0.1250077  0.6248415  )
       205           Al  tau( 205) = (  0.7494555  0.9999968  0.7494739  )
       206           Al  tau( 206) = (  0.8742826  0.1252345  0.7489482  )
       207           Al  tau( 207) = (  0.8728792  0.9997189  0.8731640  )
       208           Al  tau( 208) = (  0.7492194  0.1252644  0.8747477  )
       209           Al  tau( 209) = (  0.7493305  0.2504740  0.0000000  )
       210           Al  tau( 210) = (  0.8745261  0.3756697  0.0000000  )
       211           Al  tau( 211) = (  0.8741825  0.2508176  0.1254524  )
       212           Al  tau( 212) = (  0.7498437  0.3751565  0.1250249  )
       213           Al  tau( 213) = (  0.7498861  0.2500511  0.2501059  )
       214           Al  tau( 214) = (  0.8749489  0.3751140  0.2501058  )
       215           Al  tau( 215) = (  0.8749227  0.2500772  0.3751454  )
       216           Al  tau( 216) = (  0.7500169  0.3749831  0.3749839  )
       217           Al  tau( 217) = (  0.7499645  0.2500349  0.5000000  )
       218           Al  tau( 218) = (  0.8749650  0.3750354  0.5000000  )
       219           Al  tau( 219) = (  0.8749227  0.2500772  0.6248546  )
       220           Al  tau( 220) = (  0.7500169  0.3749831  0.6250161  )
       221           Al  tau( 221) = (  0.7498861  0.2500511  0.7498941  )
       222           Al  tau( 222) = (  0.8749489  0.3751140  0.7498942  )
       223           Al  tau( 223) = (  0.8741825  0.2508176  0.8745476  )
       224           Al  tau( 224) = (  0.7498437  0.3751565  0.8749751  )
       225           Al  tau( 225) = (  0.7498702  0.5000810  0.0000000  )
       226           Al  tau( 226) = (  0.8749550  0.6248118  0.0000000  )
       227           Al  tau( 227) = (  0.8749073  0.5000811  0.1250347  )
       228           Al  tau( 228) = (  0.7499097  0.6249205  0.1250183  )
       229           Al  tau( 229) = (  0.7499898  0.4999957  0.2500179  )
       230           Al  tau( 230) = (  0.8749832  0.6249221  0.2500912  )
       231           Al  tau( 231) = (  0.8749933  0.4999884  0.3750087  )
       232           Al  tau( 232) = (  0.7500015  0.6250096  0.3749982  )
       233           Al  tau( 233) = (  0.7499575  0.5000091  0.5000000  )
       234           Al  tau( 234) = (  0.8749500  0.6249732  0.5000000  )
       235           Al  tau( 235) = (  0.8749933  0.4999884  0.6249913  )
       236           Al  tau( 236) = (  0.7500015  0.6250096  0.6250018  )
       237           Al  tau( 237) = (  0.7499898  0.4999957  0.7499821  )
       238           Al  tau( 238) = (  0.8749832  0.6249221  0.7499088  )
       239           Al  tau( 239) = (  0.8749073  0.5000811  0.8749653  )
       240           Al  tau( 240) = (  0.7499097  0.6249205  0.8749817  )
       241           Al  tau( 241) = (  0.7494510  0.7494510  0.0000000  )
       242           Al  tau( 242) = (  0.8729575  0.8729575  0.0000000  )
       243           Al  tau( 243) = (  0.8746618  0.7492669  0.1252721  )
       244           Al  tau( 244) = (  0.7492669  0.8746618  0.1252721  )
       245           Al  tau( 245) = (  0.7499440  0.7499440  0.2500471  )
       246           Al  tau( 246) = (  0.8746463  0.8746463  0.2507044  )
       247           Al  tau( 247) = (  0.8750071  0.7499344  0.3750761  )
       248           Al  tau( 248) = (  0.7499344  0.8750071  0.3750761  )
       249           Al  tau( 249) = (  0.7499747  0.7499747  0.5000000  )
       250           Al  tau( 250) = (  0.8749590  0.8749590  0.5000000  )
       251           Al  tau( 251) = (  0.8750071  0.7499344  0.6249239  )
       252           Al  tau( 252) = (  0.7499344  0.8750071  0.6249239  )
       253           Al  tau( 253) = (  0.7499440  0.7499440  0.7499529  )
       254           Al  tau( 254) = (  0.8746463  0.8746463  0.7492957  )
       255           Al  tau( 255) = (  0.8746618  0.7492669  0.8747279  )
       256           Al  tau( 256) = (  0.7492669  0.8746618  0.8747279  )

     number of k points=    63  Methfessel-Paxton smearing, width (Ry)=  0.0441
                       cart. coord. in units 2pi/alat
        k(    1) = (   0.0000000   0.0000000   0.0000000), wk =   0.0160000
        k(    2) = (   0.0000000   0.0000000   0.2000000), wk =   0.0320000
        k(    3) = (   0.0000000   0.0000000   0.4000000), wk =   0.0320000
        k(    4) = (   0.0000000   0.2000000   0.0000000), wk =   0.0320000
        k(    5) = (   0.0000000   0.2000000   0.2000000), wk =   0.0320000
        k(    6) = (   0.0000000   0.2000000   0.4000000), wk =   0.0320000
        k(    7) = (   0.0000000   0.2000000  -0.4000000), wk =   0.0320000
        k(    8) = (   0.0000000   0.2000000  -0.2000000), wk =   0.0320000
        k(    9) = (   0.0000000   0.4000000   0.0000000), wk =   0.0320000
        k(   10) = (   0.0000000   0.4000000   0.2000000), wk =   0.0320000
        k(   11) = (   0.0000000   0.4000000   0.4000000), wk =   0.0320000
        k(   12) = (   0.0000000   0.4000000  -0.4000000), wk =   0.0320000
        k(   13) = (   0.0000000   0.4000000  -0.2000000), wk =   0.0320000
        k(   14) = (   0.2000000   0.0000000   0.0000000), wk =   0.0320000
        k(   15) = (   0.2000000   0.0000000   0.2000000), wk =   0.0320000
        k(   16) = (   0.2000000   0.0000000   0.4000000), wk =   0.0320000
        k(   17) = (   0.2000000   0.0000000  -0.4000000), wk =   0.0320000
        k(   18) = (   0.2000000   0.0000000  -0.2000000), wk =   0.0320000
        k(   19) = (   0.2000000   0.2000000   0.0000000), wk =   0.0320000
        k(   20) = (   0.2000000   0.2000000   0.2000000), wk =   0.0320000
        k(   21) = (   0.2000000   0.2000000   0.4000000), wk =   0.0320000
        k(   22) = (   0.2000000   0.2000000  -0.4000000), wk =   0.0320000
        k(   23) = (   0.2000000   0.2000000  -0.2000000), wk =   0.0320000
        k(   24) = (   0.2000000   0.4000000   0.0000000), wk =   0.0320000
        k(   25) = (   0.2000000   0.4000000   0.2000000), wk =   0.0320000
        k(   26) = (   0.2000000   0.4000000   0.4000000), wk =   0.0320000
        k(   27) = (   0.2000000   0.4000000  -0.4000000), wk =   0.0320000
        k(   28) = (   0.2000000   0.4000000  -0.2000000), wk =   0.0320000
        k(   29) = (   0.2000000  -0.4000000   0.0000000), wk =   0.0320000
        k(   30) = (   0.2000000  -0.4000000   0.2000000), wk =   0.0320000
        k(   31) = (   0.2000000  -0.4000000   0.4000000), wk =   0.0320000
        k(   32) = (   0.2000000  -0.4000000  -0.4000000), wk =   0.0320000
        k(   33) = (   0.2000000  -0.4000000  -0.2000000), wk =   0.0320000
        k(   34) = (   0.2000000  -0.2000000   0.0000000), wk =   0.0320000
        k(   35) = (   0.2000000  -0.2000000   0.2000000), wk =   0.0320000
        k(   36) = (   0.2000000  -0.2000000   0.4000000), wk =   0.0320000
        k(   37) = (   0.2000000  -0.2000000  -0.4000000), wk =   0.0320000
        k(   38) = (   0.2000000  -0.2000000  -0.2000000), wk =   0.0320000
        k(   39) = (   0.4000000   0.0000000   0.0000000), wk =   0.0320000
        k(   40) = (   0.4000000   0.0000000   0.2000000), wk =   0.0320000
        k(   41) = (   0.4000000   0.0000000   0.4000000), wk =   0.0320000
        k(   42) = (   0.4000000   0.0000000  -0.4000000), wk =   0.0320000
        k(   43) = (   0.4000000   0.0000000  -0.2000000), wk =   0.0320000
        k(   44) = (   0.4000000   0.2000000   0.0000000), wk =   0.0320000
        k(   45) = (   0.4000000   0.2000000   0.2000000), wk =   0.0320000
        k(   46) = (   0.4000000   0.2000000   0.4000000), wk =   0.0320000
        k(   47) = (   0.4000000   0.2000000  -0.4000000), wk =   0.0320000
        k(   48) = (   0.4000000   0.2000000  -0.2000000), wk =   0.0320000
        k(   49) = (   0.4000000   0.4000000   0.0000000), wk =   0.0320000
        k(   50) = (   0.4000000   0.4000000   0.2000000), wk =   0.0320000
        k(   51) = (   0.4000000   0.4000000   0.4000000), wk =   0.0320000
        k(   52) = (   0.4000000   0.4000000  -0.4000000), wk =   0.0320000
        k(   53) = (   0.4000000   0.4000000  -0.2000000), wk =   0.0320000
        k(   54) = (   0.4000000  -0.4000000   0.0000000), wk =   0.0320000
        k(   55) = (   0.4000000  -0.4000000   0.2000000), wk =   0.0320000
        k(   56) = (   0.4000000  -0.4000000   0.4000000), wk =   0.0320000
        k(   57) = (   0.4000000  -0.4000000  -0.4000000), wk =   0.0320000
        k(   58) = (   0.4000000  -0.4000000  -0.2000000), wk =   0.0320000
        k(   59) = (   0.4000000  -0.2000000   0.0000000), wk =   0.0320000
        k(   60) = (   0.4000000  -0.2000000   0.2000000), wk =   0.0320000
        k(   61) = (   0.4000000  -0.2000000   0.4000000), wk =   0.0320000
        k(   62) = (   0.4000000  -0.2000000  -0.4000000), wk =   0.0320000
        k(   63) = (   0.4000000  -0.2000000  -0.2000000), wk =   0.0320000

                       cryst. coord.
        k(    1) = (   0.0000000   0.0000000   0.0000000), wk =   0.0160000
        k(    2) = (   0.0000000   0.0000000   0.2000000), wk =   0.0320000
        k(    3) = (   0.0000000   0.0000000   0.4000000), wk =   0.0320000
        k(    4) = (   0.0000000   0.2000000   0.0000000), wk =   0.0320000
        k(    5) = (   0.0000000   0.2000000   0.2000000), wk =   0.0320000
        k(    6) = (   0.0000000   0.2000000   0.4000000), wk =   0.0320000
        k(    7) = (   0.0000000   0.2000000  -0.4000000), wk =   0.0320000
        k(    8) = (   0.0000000   0.2000000  -0.2000000), wk =   0.0320000
        k(    9) = (   0.0000000   0.4000000   0.0000000), wk =   0.0320000
        k(   10) = (   0.0000000   0.4000000   0.2000000), wk =   0.0320000
        k(   11) = (   0.0000000   0.4000000   0.4000000), wk =   0.0320000
        k(   12) = (   0.0000000   0.4000000  -0.4000000), wk =   0.0320000
        k(   13) = (   0.0000000   0.4000000  -0.2000000), wk =   0.0320000
        k(   14) = (   0.2000000   0.0000000   0.0000000), wk =   0.0320000
        k(   15) = (   0.2000000   0.0000000   0.2000000), wk =   0.0320000
        k(   16) = (   0.2000000   0.0000000   0.4000000), wk =   0.0320000
        k(   17) = (   0.2000000   0.0000000  -0.4000000), wk =   0.0320000
        k(   18) = (   0.2000000   0.0000000  -0.2000000), wk =   0.0320000
        k(   19) = (   0.2000000   0.2000000   0.0000000), wk =   0.0320000
        k(   20) = (   0.2000000   0.2000000   0.2000000), wk =   0.0320000
        k(   21) = (   0.2000000   0.2000000   0.4000000), wk =   0.0320000
        k(   22) = (   0.2000000   0.2000000  -0.4000000), wk =   0.0320000
        k(   23) = (   0.2000000   0.2000000  -0.2000000), wk =   0.0320000
        k(   24) = (   0.2000000   0.4000000   0.0000000), wk =   0.0320000
        k(   25) = (   0.2000000   0.4000000   0.2000000), wk =   0.0320000
        k(   26) = (   0.2000000   0.4000000   0.4000000), wk =   0.0320000
        k(   27) = (   0.2000000   0.4000000  -0.4000000), wk =   0.0320000
        k(   28) = (   0.2000000   0.4000000  -0.2000000), wk =   0.0320000
        k(   29) = (   0.2000000  -0.4000000   0.0000000), wk =   0.0320000
        k(   30) = (   0.2000000  -0.4000000   0.2000000), wk =   0.0320000
        k(   31) = (   0.2000000  -0.4000000   0.4000000), wk =   0.0320000
        k(   32) = (   0.2000000  -0.4000000  -0.4000000), wk =   0.0320000
        k(   33) = (   0.2000000  -0.4000000  -0.2000000), wk =   0.0320000
        k(   34) = (   0.2000000  -0.2000000   0.0000000), wk =   0.0320000
        k(   35) = (   0.2000000  -0.2000000   0.2000000), wk =   0.0320000
        k(   36) = (   0.2000000  -0.2000000   0.4000000), wk =   0.0320000
        k(   37) = (   0.2000000  -0.2000000  -0.4000000), wk =   0.0320000
        k(   38) = (   0.2000000  -0.2000000  -0.2000000), wk =   0.0320000
        k(   39) = (   0.4000000   0.0000000   0.0000000), wk =   0.0320000
        k(   40) = (   0.4000000   0.0000000   0.2000000), wk =   0.0320000
        k(   41) = (   0.4000000   0.0000000   0.4000000), wk =   0.0320000
        k(   42) = (   0.4000000   0.0000000  -0.4000000), wk =   0.0320000
        k(   43) = (   0.4000000   0.0000000  -0.2000000), wk =   0.0320000
        k(   44) = (   0.4000000   0.2000000   0.0000000), wk =   0.0320000
        k(   45) = (   0.4000000   0.2000000   0.2000000), wk =   0.0320000
        k(   46) = (   0.4000000   0.2000000   0.4000000), wk =   0.0320000
        k(   47) = (   0.4000000   0.2000000  -0.4000000), wk =   0.0320000
        k(   48) = (   0.4000000   0.2000000  -0.2000000), wk =   0.0320000
        k(   49) = (   0.4000000   0.4000000   0.0000000), wk =   0.0320000
        k(   50) = (   0.4000000   0.4000000   0.2000000), wk =   0.0320000
        k(   51) = (   0.4000000   0.4000000   0.4000000), wk =   0.0320000
        k(   52) = (   0.4000000   0.4000000  -0.4000000), wk =   0.0320000
        k(   53) = (   0.4000000   0.4000000  -0.2000000), wk =   0.0320000
        k(   54) = (   0.4000000  -0.4000000   0.0000000), wk =   0.0320000
        k(   55) = (   0.4000000  -0.4000000   0.2000000), wk =   0.0320000
        k(   56) = (   0.4000000  -0.4000000   0.4000000), wk =   0.0320000
        k(   57) = (   0.4000000  -0.4000000  -0.4000000), wk =   0.0320000
        k(   58) = (   0.4000000  -0.4000000  -0.2000000), wk =   0.0320000
        k(   59) = (   0.4000000  -0.2000000   0.0000000), wk =   0.0320000
        k(   60) = (   0.4000000  -0.2000000   0.2000000), wk =   0.0320000
        k(   61) = (   0.4000000  -0.2000000   0.4000000), wk =   0.0320000
        k(   62) = (   0.4000000  -0.2000000  -0.4000000), wk =   0.0320000
        k(   63) = (   0.4000000  -0.2000000  -0.2000000), wk =   0.0320000

     Dense  grid:  3895379 G-vectors     FFT dimensions: ( 200, 200, 200)

     Smooth grid:   985619 G-vectors     FFT dimensions: ( 125, 125, 125)

     Dynamical RAM for                 wfc:     108.09 MB

     Dynamical RAM for     wfc (w. buffer):     324.28 MB

     Dynamical RAM for           str. fact:      14.86 MB

     Dynamical RAM for           local pot:       0.00 MB

     Dynamical RAM for          nlocal pot:    1078.11 MB

     Dynamical RAM for                qrad:      15.65 MB

     Dynamical RAM for          rho,v,vnew:      45.18 MB

     Dynamical RAM for               rhoin:      15.06 MB

     Dynamical RAM for            rho*nmix:     118.88 MB

     Dynamical RAM for           G-vectors:      28.80 MB

     Dynamical RAM for          h,s,v(r/c):      38.75 MB

     Dynamical RAM for          <psi|beta>:      32.20 MB

     Dynamical RAM for                 psi:     432.37 MB

     Dynamical RAM for                hpsi:     432.37 MB

     Dynamical RAM for                spsi:     432.37 MB

     Dynamical RAM for      wfcinit/wfcrot:     505.26 MB

     Dynamical RAM for           addusdens:      98.03 MB

     Dynamical RAM for          addusforce:     201.19 MB

     Dynamical RAM for         addusstress:      45.09 MB

     Estimated static dynamical RAM per process >       1.66 GB

     Estimated max dynamical RAM per process >       3.00 GB

     Estimated total dynamical RAM >     863.25 GB

     Initial potential from superposition of free atoms

     starting charge  765.41644, renormalised to  766.00000
     Starting wfcs are 1024 randomized atomic wfcs
     Checking if some PAW data can be deallocated... 
       PAW data deallocated on  284 nodes for type:  1
       PAW data deallocated on    4 nodes for type:  2

     total cpu time spent up to now is      207.5 secs

     Self-consistent Calculation

     iteration #  1     ecut=    40.00 Ry     beta= 0.40
     Davidson diagonalization with overlap
     ethr =  1.00E-02,  avg # of iterations =  3.0

     Threshold (ethr) on eigenvalues was too large:
     Diagonalizing with lowered threshold

     Davidson diagonalization with overlap
     ethr =  1.99E-04,  avg # of iterations =  8.4

     total cpu time spent up to now is      990.1 secs

     total energy              =  -10101.10759115 Ry
     Harris-Foulkes estimate   =  -10101.28005840 Ry
     estimated scf accuracy    <       1.56380626 Ry

     iteration #  2     ecut=    40.00 Ry     beta= 0.40
     Davidson diagonalization with overlap
     ethr =  2.04E-04,  avg # of iterations =  1.0

     total cpu time spent up to now is     1220.3 secs

     total energy              =  -10100.89126298 Ry
     Harris-Foulkes estimate   =  -10101.11568845 Ry
     estimated scf accuracy    <       0.81517118 Ry

     iteration #  3     ecut=    40.00 Ry     beta= 0.40
     Davidson diagonalization with overlap
     ethr =  1.06E-04,  avg # of iterations =  1.1

     total cpu time spent up to now is     1450.3 secs

     total energy              =  -10100.91332403 Ry
     Harris-Foulkes estimate   =  -10100.91515897 Ry
     estimated scf accuracy    <       0.00530694 Ry

     iteration #  4     ecut=    40.00 Ry     beta= 0.40
     Davidson diagonalization with overlap
     c_bands:  4 eigenvalues not converged
     ethr =  6.93E-07,  avg # of iterations = 19.7

     total cpu time spent up to now is     2157.6 secs

     total energy              =  -10100.91809476 Ry
     Harris-Foulkes estimate   =  -10100.91802122 Ry
     estimated scf accuracy    <       0.01263627 Ry

     iteration #  5     ecut=    40.00 Ry     beta= 0.40
     Davidson diagonalization with overlap
     ethr =  6.93E-07,  avg # of iterations =  8.7

     total cpu time spent up to now is     2456.8 secs

     total energy              =  -10100.91073211 Ry
     Harris-Foulkes estimate   =  -10100.91811631 Ry
     estimated scf accuracy    <       0.01635740 Ry

     iteration #  6     ecut=    40.00 Ry     beta= 0.40
     Davidson diagonalization with overlap
     ethr =  6.93E-07,  avg # of iterations =  9.0

     total cpu time spent up to now is     3006.3 secs

     total energy              =  -10100.91307906 Ry
     Harris-Foulkes estimate   =  -10100.92590645 Ry
     estimated scf accuracy    <       0.13951430 Ry

     iteration #  7     ecut=    40.00 Ry     beta= 0.40
     Davidson diagonalization with overlap
     ethr =  6.93E-07,  avg # of iterations =  4.0

     total cpu time spent up to now is     3324.8 secs

     total energy              =  -10100.91607233 Ry
     Harris-Foulkes estimate   =  -10100.91700854 Ry
     estimated scf accuracy    <       0.01468162 Ry

     iteration #  8     ecut=    40.00 Ry     beta= 0.40
     Davidson diagonalization with overlap
     ethr =  6.93E-07,  avg # of iterations =  1.5

     total cpu time spent up to now is     3554.4 secs

     total energy              =  -10100.91563084 Ry
     Harris-Foulkes estimate   =  -10100.91626331 Ry
     estimated scf accuracy    <       0.00510042 Ry

     iteration #  9     ecut=    40.00 Ry     beta= 0.40
     Davidson diagonalization with overlap
     ethr =  6.66E-07,  avg # of iterations =  3.0

     total cpu time spent up to now is     3800.9 secs

     total energy              =  -10100.91599031 Ry
     Harris-Foulkes estimate   =  -10100.91597156 Ry
     estimated scf accuracy    <       0.00002070 Ry

     iteration # 10     ecut=    40.00 Ry     beta= 0.40
     Davidson diagonalization with overlap
     ethr =  2.70E-09,  avg # of iterations =  5.6

     total cpu time spent up to now is     4283.9 secs

     total energy              =  -10100.91604407 Ry
     Harris-Foulkes estimate   =  -10100.91606320 Ry
     estimated scf accuracy    <       0.00031872 Ry

     iteration # 11     ecut=    40.00 Ry     beta= 0.40
     Davidson diagonalization with overlap
     ethr =  2.70E-09,  avg # of iterations =  2.3

     total cpu time spent up to now is     4546.1 secs

     total energy              =  -10100.91604757 Ry
     Harris-Foulkes estimate   =  -10100.91604733 Ry
     estimated scf accuracy    <       0.00011216 Ry

     iteration # 12     ecut=    40.00 Ry     beta= 0.40
     Davidson diagonalization with overlap
     ethr =  2.70E-09,  avg # of iterations =  1.0

     total cpu time spent up to now is     4775.4 secs

     total energy              =  -10100.91603140 Ry
     Harris-Foulkes estimate   =  -10100.91604773 Ry
     estimated scf accuracy    <       0.00011961 Ry

     iteration # 13     ecut=    40.00 Ry     beta= 0.40
     Davidson diagonalization with overlap
     ethr =  2.70E-09,  avg # of iterations =  3.7

     total cpu time spent up to now is     5067.4 secs

     total energy              =  -10100.91603832 Ry
     Harris-Foulkes estimate   =  -10100.91603886 Ry
     estimated scf accuracy    <       0.00000333 Ry

     iteration # 14     ecut=    40.00 Ry     beta= 0.40
     Davidson diagonalization with overlap
     ethr =  4.34E-10,  avg # of iterations =  3.3

     total cpu time spent up to now is     5321.1 secs

     total energy              =  -10100.91603865 Ry
     Harris-Foulkes estimate   =  -10100.91603862 Ry
     estimated scf accuracy    <       0.00000075 Ry

     iteration # 15     ecut=    40.00 Ry     beta= 0.40
     Davidson diagonalization with overlap
     ethr =  9.74E-11,  avg # of iterations =  4.4

     total cpu time spent up to now is     5660.6 secs

     total energy              =  -10100.91603827 Ry
     Harris-Foulkes estimate   =  -10100.91603887 Ry
     estimated scf accuracy    <       0.00000421 Ry

     iteration # 16     ecut=    40.00 Ry     beta= 0.40
     Davidson diagonalization with overlap
     ethr =  9.74E-11,  avg # of iterations =  3.5

     total cpu time spent up to now is     5956.1 secs

     total energy              =  -10100.91603856 Ry
     Harris-Foulkes estimate   =  -10100.91603860 Ry
     estimated scf accuracy    <       0.00000024 Ry

     iteration # 17     ecut=    40.00 Ry     beta= 0.40
     Davidson diagonalization with overlap
     ethr =  3.12E-11,  avg # of iterations =  3.7

     total cpu time spent up to now is     6247.0 secs

     total energy              =  -10100.91603857 Ry
     Harris-Foulkes estimate   =  -10100.91603860 Ry
     estimated scf accuracy    <       0.00000053 Ry

     iteration # 18     ecut=    40.00 Ry     beta= 0.40
     Davidson diagonalization with overlap
     ethr =  3.12E-11,  avg # of iterations =  1.0

     total cpu time spent up to now is     6476.6 secs

     total energy              =  -10100.91603852 Ry
     Harris-Foulkes estimate   =  -10100.91603857 Ry
     estimated scf accuracy    <       0.00000029 Ry

     iteration # 19     ecut=    40.00 Ry     beta= 0.40
     Davidson diagonalization with overlap
     ethr =  3.12E-11,  avg # of iterations =  3.0

     total cpu time spent up to now is     6739.4 secs

     total energy              =  -10100.91603855 Ry
     Harris-Foulkes estimate   =  -10100.91603855 Ry
     estimated scf accuracy    <          7.2E-09 Ry

     iteration # 20     ecut=    40.00 Ry     beta= 0.40
     Davidson diagonalization with overlap
     ethr =  9.42E-13,  avg # of iterations =  4.2

     total cpu time spent up to now is     7072.6 secs

     total energy              =  -10100.91603855 Ry
     Harris-Foulkes estimate   =  -10100.91603855 Ry
     estimated scf accuracy    <          6.4E-10 Ry

     iteration # 21     ecut=    40.00 Ry     beta= 0.40
     Davidson diagonalization with overlap
     ethr =  1.00E-13,  avg # of iterations =  3.0

     total cpu time spent up to now is     7339.8 secs

     total energy              =  -10100.91603854 Ry
     Harris-Foulkes estimate   =  -10100.91603854 Ry
     estimated scf accuracy    <          2.3E-09 Ry

     iteration # 22     ecut=    40.00 Ry     beta= 0.40
     Davidson diagonalization with overlap
     ethr =  1.00E-13,  avg # of iterations =  2.1

     total cpu time spent up to now is     7573.9 secs

     total energy              =  -10100.91603854 Ry
     Harris-Foulkes estimate   =  -10100.91603854 Ry
     estimated scf accuracy    <          6.6E-10 Ry

     iteration # 23     ecut=    40.00 Ry     beta= 0.40
     Davidson diagonalization with overlap
     ethr =  1.00E-13,  avg # of iterations =  3.8

     total cpu time spent up to now is     7859.4 secs

     total energy              =  -10100.91603854 Ry
     Harris-Foulkes estimate   =  -10100.91603854 Ry
     estimated scf accuracy    <          1.0E-10 Ry

     iteration # 24     ecut=    40.00 Ry     beta= 0.40
     Davidson diagonalization with overlap
     ethr =  1.00E-13,  avg # of iterations =  1.0

     total cpu time spent up to now is     8089.8 secs

     total energy              =  -10100.91603854 Ry
     Harris-Foulkes estimate   =  -10100.91603854 Ry
     estimated scf accuracy    <          1.5E-11 Ry

     iteration # 25     ecut=    40.00 Ry     beta= 0.40
     Davidson diagonalization with overlap
     ethr =  1.00E-13,  avg # of iterations =  1.0

     total cpu time spent up to now is     8318.8 secs

     End of self-consistent calculation

          k = 0.0000 0.0000 0.0000 (123065 PWs)   bands (ev):

    -3.2820  -2.7380  -2.7373  -2.7341  -2.7334  -2.7233  -2.6555  -2.1812
    -2.1811  -2.1804  -2.1799  -2.1778  -2.1766  -2.1757  -2.1751  -2.1594
    -2.1575  -2.1278  -2.0216  -1.6234  -1.6221  -1.6172  -1.6150  -1.6065
    -1.6007  -1.5818  -1.5138  -1.0598  -1.0574  -1.0568  -1.0511  -1.0351
    -1.0096  -0.5184  -0.5181  -0.5180  -0.5177  -0.5168  -0.5160  -0.5156
    -0.5154  -0.5153  -0.5132  -0.5117  -0.5116  -0.5101  -0.5091  -0.5079
    -0.5075  -0.5012  -0.4924  -0.4866  -0.4796  -0.4654  -0.4580  -0.3872
    -0.3284   0.0313   0.0318   0.0318   0.0337   0.0349   0.0356   0.0363
     0.0368   0.0373   0.0376   0.0393   0.0394   0.0408   0.0426   0.0440
     0.0463   0.0484   0.0561   0.0718   0.0822   0.0967   0.1062   0.2150
     0.3347   1.1341   1.1376   1.1380   1.1383   1.1421   1.1441   1.1518
     1.1549   1.1564   1.1598   1.1935   1.2081   1.6696   1.6702   1.6710
     1.6718   1.6720   1.6725   1.6725   1.6737   1.6745   1.6746   1.6759
     1.6761   1.6766   1.6793   1.6804   1.6822   1.6822   1.6826   1.6841
     1.6875   1.6876   1.6938   1.6938   1.7035   1.7329   1.7418   1.7501
     1.7612   1.8210   1.8554   2.2051   2.2066   2.2070   2.2075   2.2106
     2.2110   2.2112   2.2118   2.2145   2.2160   2.2162   2.2170   2.2174
     2.2191   2.2217   2.2221   2.2238   2.2368   2.2554   2.2731   2.2846
     2.2935   2.3695   2.3749   2.7460   2.7472   2.7479   2.7490   2.7509
     2.7521   2.7528   2.7553   2.7569   2.7576   2.7581   2.7620   2.7621
     2.7648   2.7674   2.7692   2.7726   2.7861   2.8008   2.8148   2.8185
     2.8267   2.9265   2.9308   3.2293   3.2327   3.2391   3.2404   3.4069
     3.4076   3.4386   3.4494   3.8171   3.8174   3.8185   3.8196   3.8238
     3.8262   3.8267   3.8295   3.8297   3.8299   3.8301   3.8336   3.8372
     3.8405   3.8443   3.8494   3.8571   3.8699   3.8716   3.8738   3.8749
     3.8845   3.9305   3.9443   4.2463   4.2466   4.2473   4.2478   4.2481
     4.2481   4.2500   4.2509   4.2513   4.2515   4.2534   4.2550   4.2556
     4.2599   4.2633   4.2641   4.2684   4.2705   4.2829   4.2982   4.3244
     4.3456   4.3732   4.3838   4.4766   4.4770   4.4772   4.4774   4.4797
     4.4799   4.4800   4.4807   4.4809   4.4817   4.4829   4.4868   4.4910
     4.5018   4.5063   4.5092   4.5138   4.5214   4.5223   4.5260   4.5261
     4.5400   4.7589   4.8059   4.8867   4.8883   4.8917   5.3765   5.3770
     5.3771   5.3806   5.3810   5.3812   5.3855   5.3898   5.3950   5.4596
     5.4616   5.4649   5.8900   5.8941   5.8946   5.8997   5.8999   5.9010
     5.9077   5.9107   5.9133   5.9419   5.9424   5.9455   5.9649   5.9651
     5.9666   5.9667   5.9668   5.9680   5.9689   5.9690   5.9692   5.9692
     5.9696   5.9703   5.9745   5.9772   5.9847   6.0031   6.0046   6.0133
     6.0371   6.0508   6.0541   6.0667   6.0723   6.0898   6.1720   6.1991
     6.2062   6.4221   6.4268   6.4275   6.4373   6.4373   6.4406   6.4454
     6.4463   6.4468   6.4552   6.4665   6.4682   6.6984   6.6985   6.6987
     6.7002   6.7052   6.7096   6.7108   6.7135   6.7165   6.7514   6.7910
     6.8165   6.9310   6.9319   6.9347   6.9348   6.9381   6.9399   6.9412
     6.9474   6.9516   6.9581   6.9585   6.9646   7.0065   7.0074   7.0097
     7.0106   7.0108   7.0119   7.0121   7.0139   7.0166   7.0175   7.0203
     7.0272   7.0298   7.0313   7.0374   7.0453   7.0578   7.0634   7.0687
     7.0860   7.0880   7.0942   7.0993   7.1129   7.3429   7.3430   7.3454
     7.3496   7.3506   7.3517   7.3554   7.3581   7.3596   7.3740   7.4371
     7.4371   7.4383   7.4394   7.4410   7.4420   7.4456   7.4457   7.4474
     7.4484   7.4494   7.4507   7.4545   7.4680   7.4707   7.4734   7.4751
     7.4758   7.4932   7.5142   7.5244   7.5490   7.5501   7.5745   7.5978
     7.6089   7.9545   7.9687   7.9775   7.9775   7.9790   7.9806   8.5853
     8.5858   8.5858   8.5868   8.5868   8.5884   8.5888   8.5892   8.5899
     8.5901   8.5915   8.5931   8.5950   8.5966   8.5970   8.6001   8.6313
     8.6386   8.6452   8.6476   8.6520   8.6625   8.6673   8.6704   8.8139
     8.8140   8.8143   8.8155   8.8332   8.8377   8.8863   8.8865   8.8875
     8.8880   8.8889   8.8897   8.8902   8.8915   8.8929   8.8955   8.8962
     8.8966   8.9001   8.9028   8.9082   8.9153   8.9181   8.9377   8.9468
     8.9487   8.9580   8.9585   9.0063

     occupation numbers 
     1.0000   1.0000   1.0000   1.0000   1.0000   1.0000   1.0000   1.0000
     1.0000   1.0000   1.0000   1.0000   1.0000   1.0000   1.0000   1.0000
     1.0000   1.0000   1.0000   1.0000   1.0000   1.0000   1.0000   1.0000
     1.0000   1.0000   1.0000   1.0000   1.0000   1.0000   1.0000   1.0000
     1.0000   1.0000   1.0000   1.0000   1.0000   1.0000   1.0000   1.0000
     1.0000   1.0000   1.0000   1.0000   1.0000   1.0000   1.0000   1.0000
     1.0000   1.0000   1.0000   1.0000   1.0000   1.0000   1.0000   1.0000
     1.0000   1.0000   1.0000   1.0000   1.0000   1.0000   1.0000   1.0000
     1.0000   1.0000   1.0000   1.0000   1.0000   1.0000   1.0000   1.0000
     1.0000   1.0000   1.0000   1.0000   1.0000   1.0000   1.0000   1.0000
     1.0000   1.0000   1.0000   1.0000   1.0000   1.0000   1.0000   1.0000
     1.0000   1.0000   1.0000   1.0000   1.0000   1.0000   1.0000   1.0000
     1.0000   1.0000   1.0000   1.0000   1.0000   1.0000   1.0000   1.0000
     1.0000   1.0000   1.0000   1.0000   1.0000   1.0000   1.0000   1.0000
     1.0000   1.0000   1.0000   1.0000   1.0000   1.0000   1.0000   1.0000
     1.0000   1.0000   1.0000   1.0000   1.0000   1.0000   1.0000   1.0000
     1.0000   1.0000   1.0000   1.0000   1.0000   1.0000   1.0000   1.0000
     1.0000   1.0000   1.0000   1.0000   1.0000   1.0000   1.0000   1.0000
     1.0000   1.0000   1.0000   1.0000   1.0000   1.0000   1.0000   1.0000
     1.0000   1.0000   1.0000   1.0000   1.0000   1.0000   1.0000   1.0000
     1.0000   1.0000   1.0000   1.0000   1.0000   1.0000   1.0000   1.0000
     1.0000   1.0000   1.0000   1.0000   1.0000   1.0000   1.0000   1.0000
     1.0000   1.0000   1.0000   1.0000   1.0000   1.0000   1.0000   1.0000
     1.0000   1.0000   1.0000   1.0000   1.0000   1.0000   1.0000   1.0000
     1.0000   1.0000   1.0000   1.0000   1.0000   1.0000   1.0000   1.0000
     1.0000   1.0000   1.0000   1.0000   1.0000   1.0000   1.0000   1.0000
     1.0000   1.0000   1.0000   1.0000   1.0000   1.0000   1.0000   1.0000
     1.0000   1.0000   1.0000   1.0000   1.0000   1.0000   1.0000   1.0000
     1.0000   1.0000   1.0000   1.0000   1.0000   1.0000   1.0000   1.0000
     1.0000   1.0000   1.0000   1.0000   1.0000   1.0000   1.0000   1.0000
     1.0000   1.0000   1.0000   1.0000   1.0000   1.0000   1.0000   1.0000
     1.0000   1.0000   1.0000   1.0000   1.0000   1.0000   1.0000   1.0000
     1.0000   1.0000   1.0000   1.0000   1.0000   1.0000   1.0000   1.0000
     1.0000   1.0000   1.0000   1.0000   1.0000   1.0000   1.0000   1.0000
     1.0000   1.0001   1.0001   1.0001   1.0001   1.0001   1.0001   1.0001
     1.0001   1.0001   1.0001   1.0001   1.0001   1.0001   1.0001   1.0001
     1.0001   1.0001   1.0001   1.0001   1.0001   1.0001   1.0001   1.0001
     1.0002   1.0002   1.0002   1.0002   1.0002   1.0003   1.0005   1.0007
     1.0007   1.0032   1.0033   1.0034   1.0036   1.0036   1.0037   1.0038
     1.0038   1.0038   1.0040   1.0043   1.0043   1.0147   1.0147   1.0147
     1.0148   1.0152   1.0155   1.0155   1.0157   1.0159   1.0184   1.0213
     1.0233   1.0316   1.0316   1.0318   1.0318   1.0320   1.0321   1.0322
     1.0326   1.0328   1.0331   1.0332   1.0335   1.0350   1.0351   1.0351
     1.0351   1.0351   1.0352   1.0352   1.0352   1.0353   1.0353   1.0353
     1.0354   1.0354   1.0354   1.0355   1.0354   1.0353   1.0352   1.0351
     1.0344   1.0343   1.0340   1.0337   1.0327   0.9661   0.9661   0.9647
     0.9624   0.9618   0.9612   0.9590   0.9575   0.9565   0.9477   0.9020
     0.9019   0.9009   0.9001   0.8987   0.8979   0.8949   0.8948   0.8934
     0.8926   0.8917   0.8906   0.8874   0.8754   0.8730   0.8706   0.8690
     0.8684   0.8520   0.8310   0.8205   0.7939   0.7927   0.7648   0.7370
     0.7233   0.2577   0.2407   0.2305   0.2304   0.2287   0.2268  -0.0334
    -0.0333  -0.0333  -0.0333  -0.0333  -0.0332  -0.0332  -0.0332  -0.0331
    -0.0331  -0.0330  -0.0330  -0.0329  -0.0328  -0.0328  -0.0326  -0.0307
    -0.0302  -0.0297  -0.0296  -0.0293  -0.0285  -0.0281  -0.0279  -0.0171
    -0.0171  -0.0171  -0.0170  -0.0158  -0.0155  -0.0124  -0.0124  -0.0124
    -0.0124  -0.0123  -0.0122  -0.0122  -0.0121  -0.0121  -0.0119  -0.0119
    -0.0119  -0.0117  -0.0115  -0.0112  -0.0108  -0.0107  -0.0097  -0.0092
    -0.0091  -0.0087  -0.0087  -0.0067

          k = 0.0000 0.0000 0.2000 (123202 PWs)   bands (ev):

    -3.2597  -2.9245  -2.7149  -2.7117  -2.7010  -2.6664  -2.4741  -2.3792
    -2.3762  -2.3659  -2.3227  -2.1538  -2.1464  -2.1356  -2.1090  -1.9328
    -1.9297  -1.9185  -1.8749  -1.8195  -1.8113  -1.7976  -1.7441  -1.4650
    -1.3749  -1.3671  -1.3562  -1.3153  -1.0355  -1.0349  -1.0158  -1.0152
    -0.9335  -0.9304  -0.9185  -0.8638  -0.7040  -0.7030  -0.6835  -0.6804
    -0.5823  -0.4937  -0.4927  -0.4889  -0.4829  -0.4730  -0.4683  -0.4448
    -0.4441  -0.3792  -0.3708  -0.3574  -0.3215  -0.2623  -0.2614  -0.2400
    -0.2396  -0.1631  -0.1620  -0.1583  -0.1510  -0.1400  -0.1311  -0.0811
    -0.0726  -0.0512  -0.0475  -0.0236   0.0543   0.2765   0.2776   0.2812
     0.2879   0.2988   0.3066   0.3514   0.3602   0.4999   0.5090   0.5342
     0.6052   0.7262   0.7267   0.7579   0.7655   1.0628   1.1680   1.1698
     1.1743   1.1807   1.2606   1.2616   1.2653   1.2712   1.2829   1.2906
     1.3264   1.3321   1.4989   1.5021   1.5084   1.5121   1.5852   1.5899
     1.5971   1.5978   1.6043   1.6203   1.6224   1.6833   1.6990   1.7123
     1.7334   1.7339   1.9309   1.9342   1.9358   1.9445   2.0227   2.0357
     2.0398   2.0466   2.1291   2.1296   2.1301   2.1337   2.1379   2.1386
     2.1498   2.1545   2.1581   2.1855   2.1866   2.2074   2.2336   2.2393
     2.2449   2.2591   2.2610   2.2645   2.3026   2.3083   2.3731   2.4561
     2.4711   2.4833   2.4934   2.5576   2.5633   2.5687   2.5774   2.5813
     2.5975   2.6262   2.6553   2.8735   2.8769   2.8906   2.9032   2.9045
     2.9094   2.9138   2.9503   2.9881   2.9940   2.9995   3.0122   3.0154
     3.0251   3.0625   3.0844   3.2158   3.2164   3.2456   3.2520   3.4119
     3.4198   3.4261   3.4360   3.4415   3.4473   3.4694   3.4965   3.7320
     3.7331   3.7364   3.7429   3.7529   3.7597   3.7785   3.7790   3.7867
     3.7916   3.8005   3.8048   3.8456   3.8456   3.8529   3.8549   3.8818
     3.8845   3.8895   3.9016   3.9446   3.9505   3.9552   3.9699   3.9735
     3.9810   4.0151   4.0384   4.1571   4.1572   4.1674   4.1698   4.2124
     4.2134   4.2194   4.2215   4.2806   4.2935   4.3044   4.3131   4.4798
     4.4867   4.4875   4.5181   4.5201   4.6158   4.6161   4.6236   4.6269
     4.6567   4.6590   4.6702   4.6803   4.8294   4.8348   4.8432   4.8511
     4.8515   4.8550   4.8717   4.9095   4.9118   4.9185   4.9781   4.9815
     4.9967   5.0323   5.0333   5.0380   5.0451   5.0574   5.0611   5.0636
     5.1702   5.1829   5.2131   5.2153   5.3710   5.3719   5.3832   5.3844
     5.4062   5.4103   5.4337   5.4361   5.4973   5.5046   5.5217   5.5633
     5.5640   5.5643   5.5708   5.5747   5.6002   5.6100   5.6229   5.6288
     5.6338   5.6600   5.7175   5.7216   5.7561   5.7651   5.8512   5.8714
     5.8855   5.8884   6.1279   6.1321   6.1671   6.1672   6.1947   6.2140
     6.4043   6.4083   6.4111   6.4120   6.4144   6.4181   6.4188   6.4202
     6.4215   6.4357   6.4369   6.4385   6.4447   6.4468   6.4523   6.4539
     6.5025   6.5045   6.5105   6.5124   6.5200   6.5410   6.5439   6.5499
     6.5657   6.5730   6.6005   6.6045   6.6208   6.6373   6.6386   6.6479
     6.6690   6.7288   6.7377   6.7384   6.7782   6.8379   6.8391   6.8437
     6.8483   6.8745   6.8764   6.8895   6.9064   6.9553   6.9665   6.9703
     6.9759   6.9763   6.9869   7.0590   7.0616   7.0727   7.0739   7.0790
     7.0800   7.0873   7.1021   7.1044   7.1088   7.1370   7.1415   7.1549
     7.1810   7.1815   7.2200   7.2572   7.2574   7.2575   7.2757   7.2851
     7.3008   7.3051   7.3105   7.3534   7.3585   7.3684   7.3954   7.4053
     7.4104   7.5549   7.5660   7.5668   7.6191   7.6505   7.6555   7.6587
     7.6655   7.6659   7.6710   7.6777   7.7021   7.7054   7.7078   7.7213
     7.7252   7.7459   7.7514   7.8085   7.8214   7.8520   7.8615   7.8892
     7.8956   7.9366   7.9461   7.9856   7.9860   7.9974   7.9978   8.0239
     8.0361   8.0388   8.0409   8.1795   8.1872   8.1883   8.1894   8.2252
     8.2307   8.2308   8.2421   8.4996   8.5090   8.5140   8.5591   8.6242
     8.6250   8.6324   8.6359   8.6597   8.6597   8.6761   8.6776   8.7081
     8.7101   8.7456   8.7518   8.9402   8.9426   9.0130   9.0238   9.0363
     9.0420   9.0427   9.0428   9.0473   9.0484   9.0826   9.0901   9.1412
     9.1423   9.1740   9.1746   9.1768   9.1887   9.1950   9.2248   9.2249
     9.2276   9.2331   9.2338   9.2556

     occupation numbers 
     1.0000   1.0000   1.0000   1.0000   1.0000   1.0000   1.0000   1.0000
     1.0000   1.0000   1.0000   1.0000   1.0000   1.0000   1.0000   1.0000
     1.0000   1.0000   1.0000   1.0000   1.0000   1.0000   1.0000   1.0000
     1.0000   1.0000   1.0000   1.0000   1.0000   1.0000   1.0000   1.0000
     1.0000   1.0000   1.0000   1.0000   1.0000   1.0000   1.0000   1.0000
     1.0000   1.0000   1.0000   1.0000   1.0000   1.0000   1.0000   1.0000
     1.0000   1.0000   1.0000   1.0000   1.0000   1.0000   1.0000   1.0000
     1.0000   1.0000   1.0000   1.0000   1.0000   1.0000   1.0000   1.0000
     1.0000   1.0000   1.0000   1.0000   1.0000   1.0000   1.0000   1.0000
     1.0000   1.0000   1.0000   1.0000   1.0000   1.0000   1.0000   1.0000
     1.0000   1.0000   1.0000   1.0000   1.0000   1.0000   1.0000   1.0000
     1.0000   1.0000   1.0000   1.0000   1.0000   1.0000   1.0000   1.0000
     1.0000   1.0000   1.0000   1.0000   1.0000   1.0000   1.0000   1.0000
     1.0000   1.0000   1.0000   1.0000   1.0000   1.0000   1.0000   1.0000
     1.0000   1.0000   1.0000   1.0000   1.0000   1.0000   1.0000   1.0000
     1.0000   1.0000   1.0000   1.0000   1.0000   1.0000   1.0000   1.0000
     1.0000   1.0000   1.0000   1.0000   1.0000   1.0000   1.0000   1.0000
[...]
     atom   75 type  2   force =    -0.00000002   -0.00000001   -0.00000000
     atom   76 type  2   force =    -0.00000003    0.00000001    0.00000002
     atom   77 type  2   force =    -0.00000006    0.00000005    0.00000012
     atom   78 type  2   force =    -0.00000008    0.00000000    0.00000009
     atom   79 type  2   force =    -0.00000010    0.00000006    0.00000005
     atom   80 type  2   force =    -0.00000008   -0.00000000    0.00000008
     atom   81 type  2   force =    -0.00000009   -0.00000009   -0.00000000
     atom   82 type  2   force =    -0.00000008   -0.00000007   -0.00000001
     atom   83 type  2   force =    -0.00000010   -0.00000006   -0.00000004
     atom   84 type  2   force =    -0.00000006   -0.00000010   -0.00000004
     atom   85 type  2   force =    -0.00000005   -0.00000004   -0.00000009
     atom   86 type  2   force =    -0.00000001    0.00000000    0.00000001
     atom   87 type  2   force =    -0.00000003    0.00000002    0.00000001
     atom   88 type  2   force =     0.00000002   -0.00000002    0.00000002
     atom   89 type  2   force =    -0.00000001    0.00000002   -0.00000001
     atom   90 type  2   force =    -0.00000001    0.00000000    0.00000000
     atom   91 type  2   force =    -0.00000002    0.00000004   -0.00000002
     atom   92 type  2   force =     0.00000002   -0.00000001   -0.00000002
     atom   93 type  2   force =    -0.00000004   -0.00000004    0.00000010
     atom   94 type  2   force =    -0.00000001    0.00000001   -0.00000001
     atom   95 type  2   force =    -0.00000010   -0.00000006    0.00000005
     atom   96 type  2   force =    -0.00000005   -0.00000009    0.00000004
     atom   97 type  2   force =    -0.00000004   -0.00000002   -0.00000000
     atom   98 type  2   force =    -0.00000004   -0.00000000    0.00000000
     atom   99 type  2   force =    -0.00000002    0.00000002    0.00000003
     atom  100 type  2   force =    -0.00000001   -0.00000000    0.00000001
     atom  101 type  2   force =     0.00000002    0.00000002   -0.00000000
     atom  102 type  2   force =     0.00000000   -0.00000002    0.00000002
     atom  103 type  2   force =     0.00000002    0.00000001    0.00000000
     atom  104 type  2   force =     0.00000004   -0.00000000   -0.00000000
     atom  105 type  2   force =     0.00000003   -0.00000001    0.00000000
     atom  106 type  2   force =    -0.00000001   -0.00000002   -0.00000001
     atom  107 type  2   force =    -0.00000000   -0.00000000   -0.00000000
     atom  108 type  2   force =     0.00000002   -0.00000001   -0.00000000
     atom  109 type  2   force =     0.00000002    0.00000001    0.00000000
     atom  110 type  2   force =    -0.00000002   -0.00000002   -0.00000001
     atom  111 type  2   force =    -0.00000003    0.00000001   -0.00000004
     atom  112 type  2   force =    -0.00000000   -0.00000000   -0.00000001
     atom  113 type  2   force =    -0.00000005    0.00000005    0.00000000
     atom  114 type  2   force =    -0.00000006    0.00000006    0.00000000
     atom  115 type  2   force =    -0.00000002    0.00000001    0.00000001
     atom  116 type  2   force =    -0.00000007    0.00000007   -0.00000004
     atom  117 type  2   force =     0.00000000   -0.00000000   -0.00000002
     atom  118 type  2   force =     0.00000001    0.00000001   -0.00000002
     atom  119 type  2   force =     0.00000001   -0.00000002   -0.00000001
     atom  120 type  2   force =    -0.00000001    0.00000001    0.00000001
     atom  121 type  2   force =     0.00000001   -0.00000000   -0.00000000
     atom  122 type  2   force =    -0.00000001   -0.00000002   -0.00000000
     atom  123 type  2   force =    -0.00000001   -0.00000002   -0.00000001
     atom  124 type  2   force =    -0.00000001    0.00000000   -0.00000002
     atom  125 type  2   force =    -0.00000000   -0.00000001    0.00000002
     atom  126 type  2   force =    -0.00000002    0.00000001    0.00000002
     atom  127 type  2   force =    -0.00000003    0.00000000   -0.00000000
     atom  128 type  2   force =    -0.00000007    0.00000008    0.00000005
     atom  129 type  2   force =    -0.00000003    0.00000002    0.00000001
     atom  130 type  2   force =     0.00000000   -0.00000001    0.00000000
     atom  131 type  2   force =    -0.00000001    0.00000001   -0.00000001
     atom  132 type  2   force =    -0.00000003   -0.00000000   -0.00000001
     atom  133 type  2   force =    -0.00000001   -0.00000002   -0.00000005
     atom  134 type  2   force =    -0.00000003    0.00000002   -0.00000005
     atom  135 type  2   force =    -0.00000003   -0.00000003    0.00000001
     atom  136 type  2   force =    -0.00000001    0.00000002   -0.00000001
     atom  137 type  2   force =    -0.00000000   -0.00000001   -0.00000001
     atom  138 type  2   force =    -0.00000001    0.00000003    0.00000001
     atom  139 type  2   force =    -0.00000003    0.00000001   -0.00000002
     atom  140 type  2   force =     0.00000001    0.00000002   -0.00000001
     atom  141 type  2   force =    -0.00000001    0.00000001    0.00000004
     atom  142 type  2   force =    -0.00000003    0.00000003    0.00000004
     atom  143 type  2   force =     0.00000000    0.00000002    0.00000003
     atom  144 type  2   force =    -0.00000002   -0.00000000    0.00000003
     atom  145 type  2   force =    -0.00000003   -0.00000005    0.00000000
     atom  146 type  2   force =    -0.00000000   -0.00000003   -0.00000000
     atom  147 type  2   force =    -0.00000002   -0.00000002    0.00000002
     atom  148 type  2   force =    -0.00000000   -0.00000002    0.00000003
     atom  149 type  2   force =     0.00000000   -0.00000001   -0.00000002
     atom  150 type  2   force =     0.00000000   -0.00000001    0.00000003
     atom  151 type  2   force =    -0.00000000    0.00000003    0.00000000
     atom  152 type  2   force =    -0.00000000    0.00000003    0.00000002
     atom  153 type  2   force =    -0.00000001    0.00000003    0.00000000
     atom  154 type  2   force =    -0.00000001    0.00000001   -0.00000001
     atom  155 type  2   force =    -0.00000002    0.00000002   -0.00000001
     atom  156 type  2   force =    -0.00000001    0.00000001   -0.00000001
     atom  157 type  2   force =     0.00000002    0.00000002    0.00000002
     atom  158 type  2   force =    -0.00000003   -0.00000002   -0.00000001
     atom  159 type  2   force =    -0.00000003   -0.00000002   -0.00000001
     atom  160 type  2   force =    -0.00000000   -0.00000003   -0.00000003
     atom  161 type  2   force =    -0.00000002    0.00000000    0.00000001
     atom  162 type  2   force =    -0.00000003   -0.00000000    0.00000002
     atom  163 type  2   force =    -0.00000001   -0.00000000    0.00000004
     atom  164 type  2   force =    -0.00000002   -0.00000000    0.00000005
     atom  165 type  2   force =    -0.00000003    0.00000002    0.00000003
     atom  166 type  2   force =    -0.00000002   -0.00000001    0.00000003
     atom  167 type  2   force =    -0.00000001   -0.00000001    0.00000001
     atom  168 type  2   force =    -0.00000002   -0.00000001   -0.00000001
     atom  169 type  2   force =    -0.00000002   -0.00000000   -0.00000002
     atom  170 type  2   force =    -0.00000001   -0.00000001   -0.00000001
     atom  171 type  2   force =    -0.00000000   -0.00000000   -0.00000001
     atom  172 type  2   force =    -0.00000002   -0.00000001   -0.00000001
     atom  173 type  2   force =    -0.00000003   -0.00000001   -0.00000002
     atom  174 type  2   force =    -0.00000001   -0.00000001   -0.00000004
     atom  175 type  2   force =    -0.00000000   -0.00000003   -0.00000003
     atom  176 type  2   force =    -0.00000004    0.00000000   -0.00000003
     atom  177 type  2   force =    -0.00000002    0.00000003    0.00000001
     atom  178 type  2   force =     0.00000000    0.00000005    0.00000001
     atom  179 type  2   force =    -0.00000004    0.00000002    0.00000003
     atom  180 type  2   force =    -0.00000001    0.00000002    0.00000002
     atom  181 type  2   force =    -0.00000001    0.00000001    0.00000002
     atom  182 type  2   force =    -0.00000005   -0.00000000   -0.00000001
     atom  183 type  2   force =    -0.00000004   -0.00000001    0.00000001
     atom  184 type  2   force =    -0.00000000   -0.00000003   -0.00000002
     atom  185 type  2   force =     0.00000001   -0.00000001   -0.00000002
     atom  186 type  2   force =    -0.00000002   -0.00000002   -0.00000002
     atom  187 type  2   force =    -0.00000002   -0.00000003   -0.00000002
     atom  188 type  2   force =    -0.00000001   -0.00000002   -0.00000001
     atom  189 type  2   force =    -0.00000002   -0.00000002   -0.00000002
     atom  190 type  2   force =    -0.00000002   -0.00000000    0.00000002
     atom  191 type  2   force =    -0.00000002    0.00000003   -0.00000001
     atom  192 type  2   force =    -0.00000002    0.00000003    0.00000002
     atom  193 type  2   force =     0.00000010    0.00000001   -0.00000001
     atom  194 type  2   force =     0.00000007   -0.00000007   -0.00000001
     atom  195 type  2   force =     0.00000008    0.00000001   -0.00000007
     atom  196 type  2   force =     0.00000007   -0.00000003   -0.00000004
     atom  197 type  2   force =     0.00000005    0.00000000   -0.00000008
     atom  198 type  2   force =     0.00000007   -0.00000001   -0.00000009
     atom  199 type  2   force =     0.00000004   -0.00000000   -0.00000000
     atom  200 type  2   force =     0.00000003    0.00000003    0.00000001
     atom  201 type  2   force =     0.00000002   -0.00000001   -0.00000001
     atom  202 type  2   force =     0.00000003    0.00000001   -0.00000000
     atom  203 type  2   force =     0.00000005    0.00000001    0.00000001
     atom  204 type  2   force =     0.00000001    0.00000003   -0.00000002
     atom  205 type  2   force =     0.00000007   -0.00000000    0.00000009
     atom  206 type  2   force =     0.00000007   -0.00000003    0.00000010
     atom  207 type  2   force =     0.00000008   -0.00000001    0.00000007
     atom  208 type  2   force =     0.00000008   -0.00000004    0.00000005
     atom  209 type  2   force =     0.00000004   -0.00000006    0.00000001
     atom  210 type  2   force =     0.00000007   -0.00000005    0.00000000
     atom  211 type  2   force =     0.00000009   -0.00000008   -0.00000002
     atom  212 type  2   force =    -0.00000001   -0.00000002    0.00000002
     atom  213 type  2   force =    -0.00000000   -0.00000000   -0.00000001
     atom  214 type  2   force =     0.00000001   -0.00000001   -0.00000001
     atom  215 type  2   force =     0.00000001   -0.00000002   -0.00000000
     atom  216 type  2   force =    -0.00000003    0.00000001   -0.00000000
     atom  217 type  2   force =     0.00000000    0.00000001   -0.00000001
     atom  218 type  2   force =    -0.00000001   -0.00000001   -0.00000000
     atom  219 type  2   force =     0.00000002   -0.00000002   -0.00000003
     atom  220 type  2   force =    -0.00000002    0.00000001   -0.00000002
     atom  221 type  2   force =    -0.00000001   -0.00000001    0.00000001
     atom  222 type  2   force =     0.00000001    0.00000000    0.00000001
     atom  223 type  2   force =     0.00000008   -0.00000008    0.00000004
     atom  224 type  2   force =    -0.00000000   -0.00000001   -0.00000000
     atom  225 type  2   force =     0.00000002   -0.00000001    0.00000001
     atom  226 type  2   force =     0.00000006    0.00000001    0.00000001
     atom  227 type  2   force =     0.00000001    0.00000002    0.00000001
     atom  228 type  2   force =     0.00000002   -0.00000003    0.00000004
     atom  229 type  2   force =    -0.00000000    0.00000001    0.00000002
     atom  230 type  2   force =    -0.00000001   -0.00000004   -0.00000001
     atom  231 type  2   force =    -0.00000001    0.00000000   -0.00000001
     atom  232 type  2   force =    -0.00000002   -0.00000002    0.00000000
     atom  233 type  2   force =    -0.00000002   -0.00000000   -0.00000000
     atom  234 type  2   force =    -0.00000002   -0.00000001   -0.00000001
     atom  235 type  2   force =    -0.00000002    0.00000000   -0.00000000
     atom  236 type  2   force =    -0.00000002   -0.00000001   -0.00000001
     atom  237 type  2   force =     0.00000000    0.00000000   -0.00000002
     atom  238 type  2   force =     0.00000001   -0.00000003    0.00000001
     atom  239 type  2   force =     0.00000003    0.00000000   -0.00000001
     atom  240 type  2   force =     0.00000003   -0.00000002   -0.00000003
     atom  241 type  2   force =     0.00000006    0.00000007    0.00000000
     atom  242 type  2   force =     0.00000009    0.00000010   -0.00000002
     atom  243 type  2   force =     0.00000006    0.00000007   -0.00000004
     atom  244 type  2   force =     0.00000007    0.00000007   -0.00000004
     atom  245 type  2   force =    -0.00000000   -0.00000001    0.00000001
     atom  246 type  2   force =     0.00000005    0.00000006   -0.00000008
     atom  247 type  2   force =    -0.00000002    0.00000001    0.00000002
     atom  248 type  2   force =     0.00000001   -0.00000002    0.00000002
     atom  249 type  2   force =    -0.00000001   -0.00000001   -0.00000000
     atom  250 type  2   force =     0.00000001    0.00000001   -0.00000002
     atom  251 type  2   force =    -0.00000001    0.00000001   -0.00000001
     atom  252 type  2   force =     0.00000002   -0.00000002   -0.00000002
     atom  253 type  2   force =     0.00000001    0.00000001   -0.00000002
     atom  254 type  2   force =     0.00000005    0.00000005    0.00000011
     atom  255 type  2   force =     0.00000007    0.00000010    0.00000004
     atom  256 type  2   force =     0.00000010    0.00000007    0.00000004

     Total force =     0.004083     Total SCF correction =     0.000001


     Computing stress (Cartesian axis) and pressure

          total   stress  (Ry/bohr**3)                   (kbar)     P=   -8.10
  -0.00005499   0.00000010   0.00000000         -8.09      0.01      0.00
   0.00000010  -0.00005499   0.00000000          0.01     -8.09      0.00
   0.00000000   0.00000000  -0.00005514          0.00      0.00     -8.11

     kinetic stress (kbar)   1429.95     -0.01      0.00
                               -0.01   1429.95      0.00
                                0.00      0.00   1429.96

     local   stress (kbar)    616.45     -2.49      0.00
                               -2.49    616.45     -0.00
                                0.00     -0.00    619.15

     nonloc. stress (kbar)   1036.55     -0.04     -0.00
                               -0.04   1036.55     -0.00
                               -0.00     -0.00   1036.62

     hartree stress (kbar)      5.75      1.08     -0.00
                                1.08      5.75     -0.00
                               -0.00     -0.00      4.52

     exc-cor stress (kbar)    500.99     -0.00     -0.00
                               -0.00    500.99      0.00
                               -0.00      0.00    500.99

     corecor stress (kbar)  -1269.12      0.01      0.00
                                0.01  -1269.12     -0.00
                                0.00     -0.00  -1269.13

     ewald   stress (kbar)  -2328.66      1.46     -0.00
                                1.46  -2328.66     -0.00
                               -0.00     -0.00  -2330.23

     hubbard stress (kbar)      0.00      0.00      0.00
                                0.00      0.00      0.00
                                0.00      0.00      0.00

     london  stress (kbar)      0.00      0.00      0.00
                                0.00      0.00      0.00
                                0.00      0.00      0.00

     DFT-D3  stress (kbar)      0.00      0.00      0.00
                                0.00      0.00      0.00
                                0.00      0.00      0.00

     XDM     stress (kbar)      0.00      0.00      0.00
                                0.00      0.00      0.00
                                0.00      0.00      0.00

     dft-nl  stress (kbar)      0.00      0.00      0.00
                                0.00      0.00      0.00
                                0.00      0.00      0.00

     TS-vdW  stress (kbar)      0.00      0.00      0.00
                                0.00      0.00      0.00
                                0.00      0.00      0.00



     Writing output data file aiida.save/
 
     init_run     :    203.33s CPU    205.72s WALL (       1 calls)
     electrons    :   8051.44s CPU   8111.75s WALL (       1 calls)
     forces       :     99.06s CPU     99.98s WALL (       1 calls)
     stress       :   1177.30s CPU   1178.85s WALL (       1 calls)

     Called by init_run:
     wfcinit      :    182.36s CPU    184.36s WALL (       1 calls)
     wfcinit:atom :      0.36s CPU      0.61s WALL (       2 calls)
     wfcinit:wfcr :    179.75s CPU    180.67s WALL (       2 calls)
     potinit      :      2.24s CPU      2.38s WALL (       1 calls)
     hinit0       :      2.64s CPU      2.71s WALL (       1 calls)

     Called by electrons:
     c_bands      :   7053.99s CPU   7103.87s WALL (      26 calls)
     sum_band     :    917.71s CPU    921.86s WALL (      26 calls)
     v_of_rho     :     38.33s CPU     40.64s WALL (      26 calls)
     v_h          :      3.54s CPU      3.55s WALL (      26 calls)
     v_xc         :     36.64s CPU     39.03s WALL (      28 calls)
     newd         :      7.66s CPU      9.49s WALL (      26 calls)
     PAW_pot      :      5.28s CPU      5.35s WALL (      26 calls)
     mix_rho      :     23.40s CPU     25.36s WALL (      26 calls)

     Called by c_bands:
     init_us_2    :     81.10s CPU     81.71s WALL (     110 calls)
     cegterg      :   5910.59s CPU   5956.89s WALL (      52 calls)

     Called by sum_band:
     sum_band:bec :      1.50s CPU      1.53s WALL (      52 calls)
     addusdens    :      6.23s CPU      8.27s WALL (      26 calls)

     Called by *egterg:
     h_psi        :   3767.44s CPU   3782.08s WALL (     250 calls)
     s_psi        :   1138.81s CPU   1139.63s WALL (     250 calls)
     g_psi        :      5.06s CPU      5.06s WALL (     196 calls)
     cdiaghg      :    393.78s CPU    400.27s WALL (     246 calls)
     cegterg:over :    335.80s CPU    338.11s WALL (     196 calls)
     cegterg:upda :    217.74s CPU    226.48s WALL (     196 calls)
     cegterg:last :    115.48s CPU    115.58s WALL (      54 calls)
     cdiaghg:chol :     16.18s CPU     16.31s WALL (     246 calls)
     cdiaghg:inve :      7.15s CPU      7.16s WALL (     246 calls)
     cdiaghg:para :     82.27s CPU     83.71s WALL (     492 calls)

     Called by h_psi:
     h_psi:pot    :   3762.31s CPU   3769.58s WALL (     250 calls)
     h_psi:calbec :   1140.22s CPU   1140.59s WALL (     250 calls)
     vloc_psi     :   1480.20s CPU   1486.09s WALL (     250 calls)
     add_vuspsi   :   1141.88s CPU   1142.90s WALL (     250 calls)

     General routines
     calbec       :   1654.36s CPU   1654.89s WALL (     312 calls)
     fft          :     41.88s CPU     44.46s WALL (     363 calls)
     ffts         :     10.93s CPU     10.98s WALL (     388 calls)
     fftw         :   1521.01s CPU   1526.59s WALL (  147982 calls)
     interpolate  :      4.08s CPU      4.19s WALL (      26 calls)
 
     Parallel routines
     fft_scatt_xy :    515.92s CPU    517.52s WALL (  148733 calls)
     fft_scatt_yz :    294.87s CPU    297.69s WALL (  148733 calls)

     PAW routines
     PAW_pot      :      5.28s CPU      5.35s WALL (      26 calls)
 
     PWSCF        :      2h41m CPU      2h43m WALL

 
   This run was terminated on:   8:14:49  28Feb2020            

=------------------------------------------------------------------------------=
   JOB DONE.
=------------------------------------------------------------------------------=
