begin
comment uuid: 214987d9-9043-440d-af0a-812ec59364b7 parent_uuid: 00284ee1-6af0-439a-857f-64d2dfa5a7e3 trajectory_step: final_scf
lattice     27.4841493030     0.0000000002    -7.8194519869
lattice     -0.0000000003    23.3986497144    -0.0000000009
lattice     -0.3015483366    -0.0000000008    24.9774527072
atom     -0.1102830419     0.0000000231    12.3347518042   Al  0.0 0.0    2.71929540e-09  2.19657046e-12 -6.29044368e-09
atom      1.9872874844     3.8997749759     3.5797248967   Mg  0.0 0.0    1.14725648e-07  2.07136973e-12  9.26451016e-07
atom      4.1141378953     3.8997749757    10.0328917564   Mg  0.0 0.0   -4.48990789e-07  1.33378925e-12  1.20735285e-06
atom      9.5581458913     0.0000000243    -1.7618417575   Mg  0.0 0.0    4.37238481e-07 -1.50060786e-12 -1.19909734e-06
atom     11.6849955454     0.0000000240     4.6913263042   Mg  0.0 0.0   -1.14086572e-07 -2.11202348e-12 -9.37281362e-07
atom      1.4948708654     0.0000000232     7.7101191358   Si  0.0 0.0    1.16799631e-07  1.39002083e-12  7.70998641e-08
atom      5.0175301561     0.0000000238     1.1031249835   Si  0.0 0.0    1.36398186e-06  6.42896322e-14  4.63181695e-07
atom      5.8488398479     0.0000000237     5.8613360304   Al  0.0 0.0    2.81709977e-07 -1.88252310e-13  6.74828061e-07
atom      7.8234428834     3.8997749763     2.4097138010   Al  0.0 0.0   -2.76201351e-07  2.70782732e-14 -6.64089647e-07
atom      8.6547526377     3.8997749762     7.1679249405   Si  0.0 0.0   -1.35957374e-06 -2.16195417e-13 -4.53636375e-07
atom     12.1774122470     3.8997749768     0.5609321132   Si  0.0 0.0   -1.18286626e-07 -1.51769706e-12 -8.87880209e-08
atom     13.6317916102     3.8997749764     8.4250258042   Al  0.0 0.0    2.70979683e-09 -2.19653588e-12 -6.26616213e-09
atom     15.7293621335     0.0000000243    -0.3300011094   Mg  0.0 0.0    1.14736966e-07 -1.96546514e-12  9.26531564e-07
atom     17.8562125487     0.0000000239     6.1231657500   Mg  0.0 0.0   -4.48980342e-07 -1.63887196e-12  1.20741735e-06
atom     23.3002205513     3.8997749763    -5.6715677602   Mg  0.0 0.0    4.37171424e-07  1.80004858e-12 -1.19902274e-06
atom     25.4270701963     3.8997749759     0.7816003120   Mg  0.0 0.0   -1.14087243e-07  1.98538517e-12 -9.37290025e-07
atom     15.2369455169     3.8997749763     3.8003931335   Si  0.0 0.0    1.16804981e-07 -1.81419467e-12  7.71550057e-08
atom     18.7596048098     3.8997749765    -2.8066010237   Si  0.0 0.0    1.36395127e-06 -2.09081540e-13  4.63266152e-07
atom     19.5909144981     3.8997749762     1.9516100238   Al  0.0 0.0    2.81731413e-07  2.98416372e-13  6.74903379e-07
atom     21.5655175343     0.0000000240    -1.5000122017   Al  0.0 0.0   -2.76216357e-07 -1.09464782e-13 -6.64027077e-07
atom     22.3968272881     0.0000000237     3.2581989391   Si  0.0 0.0   -1.35955722e-06  3.87317750e-13 -4.53583598e-07
atom     25.9194869011     0.0000000238    -3.3487938755   Si  0.0 0.0   -1.18300546e-07  1.92465790e-12 -8.88141423e-08
atom     -0.2610572102     0.0000000227    24.8234781578   Al  0.0 0.0    2.71929678e-09  2.19615809e-12 -6.29044300e-09
atom      1.8365133161     3.8997749755    16.0684512503   Mg  0.0 0.0    1.14725651e-07  2.07170546e-12  9.26451020e-07
atom      3.9633637270     3.8997749753    22.5216181100   Mg  0.0 0.0   -4.48990787e-07  1.33395981e-12  1.20735285e-06
atom      9.4073717230     0.0000000239    10.7268845960   Mg  0.0 0.0    4.37238483e-07 -1.49814360e-12 -1.19909734e-06
atom     11.5342213771     0.0000000236    17.1800526577   Mg  0.0 0.0   -1.14086558e-07 -2.11156997e-12 -9.37281366e-07
atom      1.3440966971     0.0000000228    20.1988454893   Si  0.0 0.0    1.16799638e-07  1.39230078e-12  7.70998652e-08
atom      4.8667559878     0.0000000234    13.5918513371   Si  0.0 0.0    1.36398186e-06  6.48855272e-14  4.63181692e-07
atom      5.6980656796     0.0000000233    18.3500623839   Al  0.0 0.0    2.81709979e-07 -1.87848030e-13  6.74828059e-07
atom      7.6726687150     3.8997749759    14.8984401546   Al  0.0 0.0   -2.76201348e-07  2.86771098e-14 -6.64089652e-07
atom      8.5039784694     3.8997749758    19.6566512941   Si  0.0 0.0   -1.35957374e-06 -2.16154296e-13 -4.53636377e-07
atom     12.0266380786     3.8997749764    13.0496584668   Si  0.0 0.0   -1.18286627e-07 -1.51842871e-12 -8.87880214e-08
atom     13.4810174419     3.8997749760    20.9137521578   Al  0.0 0.0    2.70979747e-09 -2.19671000e-12 -6.26616092e-09
atom     15.5785879652     0.0000000239    12.1587252441   Mg  0.0 0.0    1.14736971e-07 -1.96545998e-12  9.26531565e-07
atom     17.7054383804     0.0000000235    18.6118921036   Mg  0.0 0.0   -4.48980337e-07 -1.63935421e-12  1.20741735e-06
atom     23.1494463829     3.8997749759     6.8171585934   Mg  0.0 0.0    4.37171425e-07  1.80187418e-12 -1.19902274e-06
atom     25.2762960280     3.8997749755    13.2703266656   Mg  0.0 0.0   -1.14087238e-07  1.98568528e-12 -9.37290023e-07
atom     15.0861713486     3.8997749759    16.2891194870   Si  0.0 0.0    1.16804986e-07 -1.81436823e-12  7.71550107e-08
atom     18.6088306415     3.8997749761     9.6821253299   Si  0.0 0.0    1.36395127e-06 -2.06553034e-13  4.63266147e-07
atom     19.4401403298     3.8997749758    14.4403363773   Al  0.0 0.0    2.81731417e-07  2.99543323e-13  6.74903377e-07
atom     21.4147433660     0.0000000236    10.9887141518   Al  0.0 0.0   -2.76216356e-07 -1.08453271e-13 -6.64027082e-07
atom     22.2460531198     0.0000000233    15.7469252926   Si  0.0 0.0   -1.35955722e-06  3.86269536e-13 -4.53583598e-07
atom     25.7687127328     0.0000000234     9.1399324781   Si  0.0 0.0   -1.18300540e-07  1.92375542e-12 -8.88141413e-08
atom     -0.1102830420     7.7995499279    12.3347518039   Al  0.0 0.0    2.71929574e-09  2.18707824e-12 -6.29044396e-09
atom      1.9872874843    11.6993248807     3.5797248964   Mg  0.0 0.0    1.14725650e-07  2.07082202e-12  9.26451019e-07
atom      4.1141378952    11.6993248805    10.0328917561   Mg  0.0 0.0   -4.48990789e-07  1.33594051e-12  1.20735285e-06
atom      9.5581458912     7.7995499291    -1.7618417578   Mg  0.0 0.0    4.37238479e-07 -1.49601196e-12 -1.19909734e-06
atom     11.6849955453     7.7995499288     4.6913263039   Mg  0.0 0.0   -1.14086568e-07 -2.10807599e-12 -9.37281378e-07
atom      1.4948708653     7.7995499280     7.7101191355   Si  0.0 0.0    1.16799635e-07  1.39284405e-12  7.70998640e-08
atom      5.0175301560     7.7995499286     1.1031249832   Si  0.0 0.0    1.36398186e-06  6.27955765e-14  4.63181698e-07
atom      5.8488398478     7.7995499285     5.8613360301   Al  0.0 0.0    2.81709976e-07 -1.87423913e-13  6.74828063e-07
atom      7.8234428833    11.6993248811     2.4097138007   Al  0.0 0.0   -2.76201352e-07  3.14810113e-14 -6.64089650e-07
atom      8.6547526376    11.6993248810     7.1679249402   Si  0.0 0.0   -1.35957374e-06 -2.17400266e-13 -4.53636375e-07
atom     12.1774122469    11.6993248816     0.5609321129   Si  0.0 0.0   -1.18286630e-07 -1.51810113e-12 -8.87880228e-08
atom     13.6317916101    11.6993248812     8.4250258039   Al  0.0 0.0    2.70979661e-09 -2.21207941e-12 -6.26616099e-09
atom     15.7293621334     7.7995499291    -0.3300011097   Mg  0.0 0.0    1.14736974e-07 -1.96307444e-12  9.26531575e-07
atom     17.8562125486     7.7995499287     6.1231657497   Mg  0.0 0.0   -4.48980340e-07 -1.63886630e-12  1.20741735e-06
atom     23.3002205512    11.6993248810    -5.6715677605   Mg  0.0 0.0    4.37171424e-07  1.80155660e-12 -1.19902274e-06
atom     25.4270701962    11.6993248807     0.7816003117   Mg  0.0 0.0   -1.14087242e-07  1.98245747e-12 -9.37290027e-07
atom     15.2369455168    11.6993248811     3.8003931332   Si  0.0 0.0    1.16804982e-07 -1.81483755e-12  7.71550085e-08
atom     18.7596048097    11.6993248813    -2.8066010240   Si  0.0 0.0    1.36395127e-06 -2.06234103e-13  4.63266152e-07
atom     19.5909144980    11.6993248810     1.9516100235   Al  0.0 0.0    2.81731414e-07  3.01099839e-13  6.74903381e-07
atom     21.5655175342     7.7995499287    -1.5000122020   Al  0.0 0.0   -2.76216360e-07 -1.08055468e-13 -6.64027079e-07
atom     22.3968272880     7.7995499285     3.2581989388   Si  0.0 0.0   -1.35955722e-06  3.85437766e-13 -4.53583598e-07
atom     25.9194869010     7.7995499286    -3.3487938758   Si  0.0 0.0   -1.18300545e-07  1.92447263e-12 -8.88141452e-08
atom     -0.2610572103     7.7995499275    24.8234781575   Al  0.0 0.0    2.71929607e-09  2.18842224e-12 -6.29044317e-09
atom      1.8365133160    11.6993248803    16.0684512500   Mg  0.0 0.0    1.14725654e-07  2.07069262e-12  9.26451023e-07
atom      3.9633637269    11.6993248801    22.5216181097   Mg  0.0 0.0   -4.48990787e-07  1.33532183e-12  1.20735285e-06
atom      9.4073717229     7.7995499287    10.7268845957   Mg  0.0 0.0    4.37238482e-07 -1.49673998e-12 -1.19909734e-06
atom     11.5342213770     7.7995499284    17.1800526574   Mg  0.0 0.0   -1.14086575e-07 -2.10537384e-12 -9.37281376e-07
atom      1.3440966970     7.7995499276    20.1988454890   Si  0.0 0.0    1.16799639e-07  1.39159882e-12  7.70998662e-08
atom      4.8667559877     7.7995499282    13.5918513368   Si  0.0 0.0    1.36398186e-06  6.23875179e-14  4.63181694e-07
atom      5.6980656795     7.7995499281    18.3500623836   Al  0.0 0.0    2.81709981e-07 -1.85577259e-13  6.74828060e-07
atom      7.6726687149    11.6993248807    14.8984401543   Al  0.0 0.0   -2.76201350e-07  3.14819390e-14 -6.64089654e-07
atom      8.5039784693    11.6993248806    19.6566512938   Si  0.0 0.0   -1.35957374e-06 -2.16540550e-13 -4.53636378e-07
atom     12.0266380785    11.6993248812    13.0496584665   Si  0.0 0.0   -1.18286626e-07 -1.51907666e-12 -8.87880198e-08
atom     13.4810174418    11.6993248808    20.9137521575   Al  0.0 0.0    2.70981635e-09 -2.21511998e-12 -6.26616915e-09
atom     15.5785879651     7.7995499287    12.1587252438   Mg  0.0 0.0    1.14736979e-07 -1.96310380e-12  9.26531575e-07
atom     17.7054383803     7.7995499283    18.6118921033   Mg  0.0 0.0   -4.48980335e-07 -1.63825794e-12  1.20741735e-06
atom     23.1494463828    11.6993248806     6.8171585931   Mg  0.0 0.0    4.37171426e-07  1.79933326e-12 -1.19902274e-06
atom     25.2762960279    11.6993248803    13.2703266653   Mg  0.0 0.0   -1.14087240e-07  1.98201909e-12 -9.37290025e-07
atom     15.0861713485    11.6993248807    16.2891194867   Si  0.0 0.0    1.16804985e-07 -1.81379371e-12  7.71550090e-08
atom     18.6088306414    11.6993248809     9.6821253296   Si  0.0 0.0    1.36395127e-06 -2.06929516e-13  4.63266149e-07
atom     19.4401403297    11.6993248806    14.4403363770   Al  0.0 0.0    2.81731419e-07  3.01128463e-13  6.74903379e-07
atom     21.4147433659     7.7995499283    10.9887141515   Al  0.0 0.0   -2.76216358e-07 -1.08232240e-13 -6.64027083e-07
atom     22.2460531197     7.7995499281    15.7469252923   Si  0.0 0.0   -1.35955722e-06  3.86279791e-13 -4.53583600e-07
atom     25.7687127327     7.7995499282     9.1399324778   Si  0.0 0.0   -1.18300540e-07  1.92403475e-12 -8.88141405e-08
atom     -0.1102830421    15.5990998327    12.3347518036   Al  0.0 0.0    2.71929699e-09  2.17265441e-12 -6.29044444e-09
atom      1.9872874842    19.4988747855     3.5797248961   Mg  0.0 0.0    1.14725643e-07  2.07134814e-12  9.26451007e-07
atom      4.1141378951    19.4988747853    10.0328917558   Mg  0.0 0.0   -4.48990792e-07  1.33413996e-12  1.20735285e-06
atom      9.5581458911    15.5990998338    -1.7618417581   Mg  0.0 0.0    4.37238479e-07 -1.49793472e-12 -1.19909734e-06
atom     11.6849955452    15.5990998336     4.6913263036   Mg  0.0 0.0   -1.14086569e-07 -2.11311713e-12 -9.37281376e-07
atom      1.4948708652    15.5990998328     7.7101191352   Si  0.0 0.0    1.16799631e-07  1.39212467e-12  7.70998657e-08
atom      5.0175301559    15.5990998334     1.1031249829   Si  0.0 0.0    1.36398186e-06  6.27638221e-14  4.63181694e-07
atom      5.8488398477    15.5990998333     5.8613360298   Al  0.0 0.0    2.81709977e-07 -1.83010961e-13  6.74828063e-07
atom      7.8234428832    19.4988747859     2.4097138004   Al  0.0 0.0   -2.76201351e-07  3.30350984e-14 -6.64089648e-07
atom      8.6547526375    19.4988747858     7.1679249399   Si  0.0 0.0   -1.35957374e-06 -2.15247995e-13 -4.53636373e-07
atom     12.1774122468    19.4988747863     0.5609321126   Si  0.0 0.0   -1.18286631e-07 -1.51914611e-12 -8.87880233e-08
atom     13.6317916100    19.4988747860     8.4250258036   Al  0.0 0.0    2.70981596e-09 -2.21900569e-12 -6.26617001e-09
atom     15.7293621333    15.5990998338    -0.3300011100   Mg  0.0 0.0    1.14736961e-07 -1.96653179e-12  9.26531576e-07
atom     17.8562125485    15.5990998335     6.1231657494   Mg  0.0 0.0   -4.48980340e-07 -1.63964669e-12  1.20741735e-06
atom     23.3002205511    19.4988747858    -5.6715677608   Mg  0.0 0.0    4.37171426e-07  1.80213246e-12 -1.19902274e-06
atom     25.4270701961    19.4988747855     0.7816003114   Mg  0.0 0.0   -1.14087236e-07  1.98376697e-12 -9.37290014e-07
atom     15.2369455167    19.4988747859     3.8003931329   Si  0.0 0.0    1.16804982e-07 -1.81407836e-12  7.71550092e-08
atom     18.7596048096    19.4988747860    -2.8066010243   Si  0.0 0.0    1.36395127e-06 -2.05427364e-13  4.63266151e-07
atom     19.5909144979    19.4988747858     1.9516100232   Al  0.0 0.0    2.81731414e-07  3.03098250e-13  6.74903379e-07
atom     21.5655175341    15.5990998335    -1.5000122023   Al  0.0 0.0   -2.76216358e-07 -1.04702544e-13 -6.64027078e-07
atom     22.3968272879    15.5990998332     3.2581989385   Si  0.0 0.0   -1.35955722e-06  3.87341177e-13 -4.53583596e-07
atom     25.9194869009    15.5990998334    -3.3487938761   Si  0.0 0.0   -1.18300544e-07  1.92208847e-12 -8.88141437e-08
atom     -0.2610572104    15.5990998323    24.8234781572   Al  0.0 0.0    2.71929458e-09  2.17176912e-12 -6.29044260e-09
atom      1.8365133159    19.4988747851    16.0684512497   Mg  0.0 0.0    1.14725646e-07  2.07049748e-12  9.26451010e-07
atom      3.9633637268    19.4988747849    22.5216181094   Mg  0.0 0.0   -4.48990789e-07  1.33407330e-12  1.20735285e-06
atom      9.4073717228    15.5990998334    10.7268845954   Mg  0.0 0.0    4.37238481e-07 -1.49983769e-12 -1.19909734e-06
atom     11.5342213769    15.5990998332    17.1800526571   Mg  0.0 0.0   -1.14086565e-07 -2.11335318e-12 -9.37281375e-07
atom      1.3440966969    15.5990998324    20.1988454887   Si  0.0 0.0    1.16799636e-07  1.39151061e-12  7.70998652e-08
atom      4.8667559876    15.5990998330    13.5918513365   Si  0.0 0.0    1.36398186e-06  6.28454566e-14  4.63181690e-07
atom      5.6980656794    15.5990998329    18.3500623833   Al  0.0 0.0    2.81709980e-07 -1.84969150e-13  6.74828060e-07
atom      7.6726687148    19.4988747855    14.8984401540   Al  0.0 0.0   -2.76201348e-07  3.07490124e-14 -6.64089653e-07
atom      8.5039784692    19.4988747854    19.6566512935   Si  0.0 0.0   -1.35957374e-06 -2.16310725e-13 -4.53636376e-07
atom     12.0266380784    19.4988747859    13.0496584662   Si  0.0 0.0   -1.18286623e-07 -1.51677904e-12 -8.87880196e-08
atom     13.4810174417    19.4988747856    20.9137521572   Al  0.0 0.0    2.70979713e-09 -2.22128394e-12 -6.26616159e-09
atom     15.5785879650    15.5990998334    12.1587252435   Mg  0.0 0.0    1.14736967e-07 -1.96941446e-12  9.26531577e-07
atom     17.7054383802    15.5990998331    18.6118921030   Mg  0.0 0.0   -4.48980336e-07 -1.63928124e-12  1.20741735e-06
atom     23.1494463827    19.4988747854     6.8171585928   Mg  0.0 0.0    4.37171428e-07  1.80269057e-12 -1.19902274e-06
atom     25.2762960278    19.4988747851    13.2703266650   Mg  0.0 0.0   -1.14087231e-07  1.98416424e-12 -9.37290012e-07
atom     15.0861713484    19.4988747855    16.2891194864   Si  0.0 0.0    1.16804985e-07 -1.81569817e-12  7.71550079e-08
atom     18.6088306413    19.4988747856     9.6821253293   Si  0.0 0.0    1.36395127e-06 -2.06814548e-13  4.63266148e-07
atom     19.4401403296    19.4988747854    14.4403363767   Al  0.0 0.0    2.81731418e-07  3.01932369e-13  6.74903379e-07
atom     21.4147433658    15.5990998331    10.9887141512   Al  0.0 0.0   -2.76216354e-07 -1.06146172e-13 -6.64027081e-07
atom     22.2460531195    15.5990998328    15.7469252920   Si  0.0 0.0   -1.35955722e-06  3.86856724e-13 -4.53583598e-07
atom     25.7687127326    15.5990998330     9.1399324775   Si  0.0 0.0   -1.18300542e-07  1.92336165e-12 -8.88141415e-08
energy -1.792112884897094e+03
charge 0.0000
end
