begin
comment uuid: d7dac1cb-ee87-4461-ab4a-7b9936f14816 parent_uuid: 4c3843d7-8355-4b7b-b4e8-830f92b1b176 trajectory_step: final_scf
lattice     27.9034359104    -0.0000000015    -7.8194272980
lattice     -0.0000000012    23.0334364860     0.0000000000
lattice     -0.1123719256    -0.0000000004    25.6518779922
atom     -0.0161857954    -0.0000000396    12.6681044533   Mg  0.0 0.0   -9.20967019e-10 -1.50576202e-12 -1.03889388e-09
atom      2.1223843385     3.8389060413     3.8442613240   Mg  0.0 0.0    7.52516453e-07 -8.45722058e-13 -4.72915212e-07
atom      4.3300831868     3.8389060410    10.3285897087   Mg  0.0 0.0    2.75334391e-08 -6.16524245e-13  6.26216997e-07
atom      9.6454491816    -0.0000000405    -1.7280337094   Mg  0.0 0.0   -2.98333746e-08  1.71611430e-12 -6.23940803e-07
atom     11.8531478107    -0.0000000407     4.7562950690   Mg  0.0 0.0   -7.51448355e-07  1.28082225e-12  4.68798059e-07
atom      1.5763554008    -0.0000000397     7.8529981720   Si  0.0 0.0   -1.05249175e-06 -1.20835333e-12  1.09788693e-06
atom      5.1961920225    -0.0000000401     1.2132397447   Si  0.0 0.0   -6.81051315e-07  2.23343754e-12  2.41070653e-07
atom      5.9594501373    -0.0000000403     6.0448763363   Al  0.0 0.0   -1.68906665e-06  3.05275053e-12 -1.93131673e-07
atom      8.0160819996     3.8389060408     2.5556796804   Al  0.0 0.0    1.69072031e-06 -1.62653769e-12  1.94886518e-07
atom      8.7793401860     3.8389060406     7.3873162766   Si  0.0 0.0    6.81099044e-07 -8.74538049e-13 -2.38458941e-07
atom     12.3991767771     3.8389060403     0.7475580673   Si  0.0 0.0    1.05293766e-06  1.74492895e-12 -1.09974208e-06
atom     13.9355321604     3.8389060401     8.7583908243   Mg  0.0 0.0   -9.20844933e-10  1.51834641e-12 -1.16084436e-09
atom     16.0741022908    -0.0000000407    -0.0654523111   Mg  0.0 0.0    7.52542883e-07  8.28881981e-13 -4.72989580e-07
atom     18.2818011494    -0.0000000408     6.4188760535   Mg  0.0 0.0    2.74925064e-08  7.11886982e-13  6.26259322e-07
atom     23.5971671375     3.8389060402    -5.6377473855   Mg  0.0 0.0   -2.98458718e-08 -1.81793203e-12 -6.23763569e-07
atom     25.8048657627     3.8389060399     0.8465813919   Mg  0.0 0.0   -7.51430315e-07 -1.25832093e-12  4.68970995e-07
atom     15.5280733581     3.8389060402     3.9432845376   Si  0.0 0.0   -1.05248822e-06  1.32455865e-12  1.09781023e-06
atom     19.1479099765     3.8389060402    -2.6964739130   Si  0.0 0.0   -6.81055848e-07 -2.17139225e-12  2.41122316e-07
atom     19.9111680884     3.8389060402     2.1351626745   Al  0.0 0.0   -1.68904664e-06 -3.07636367e-12 -1.93028712e-07
atom     21.9677999559    -0.0000000407    -1.3540339931   Al  0.0 0.0    1.69071189e-06  1.63968982e-12  1.95055463e-07
atom     22.7310581403    -0.0000000408     3.4776026025   Si  0.0 0.0    6.81108630e-07  8.03398100e-13 -2.38293842e-07
atom     26.3508947344    -0.0000000409    -3.1621556039   Si  0.0 0.0    1.05293794e-06 -1.84946926e-12 -1.09961296e-06
atom     -0.0723717582    -0.0000000398    25.4940434493   Mg  0.0 0.0   -9.21604855e-10 -1.50632877e-12 -1.03932358e-09
atom      2.0661983757     3.8389060411    16.6702003201   Mg  0.0 0.0    7.52516471e-07 -8.52611555e-13 -4.72915215e-07
atom      4.2738972240     3.8389060408    23.1545287047   Mg  0.0 0.0    2.75334478e-08 -6.12734995e-13  6.26216991e-07
atom      9.5892632188    -0.0000000407    11.0979052866   Mg  0.0 0.0   -2.98333758e-08  1.71686164e-12 -6.23940816e-07
atom     11.7969618479    -0.0000000409    17.5822340651   Mg  0.0 0.0   -7.51448326e-07  1.28175489e-12  4.68798044e-07
atom      1.5201694380    -0.0000000399    20.6789371681   Si  0.0 0.0   -1.05249142e-06 -1.20864696e-12  1.09788702e-06
atom      5.1400060597    -0.0000000403    14.0391787407   Si  0.0 0.0   -6.81051278e-07  2.23232456e-12  2.41070552e-07
atom      5.9032641745    -0.0000000405    18.8708153323   Al  0.0 0.0   -1.68906663e-06  3.05133582e-12 -1.93131679e-07
atom      7.9598960368     3.8389060406    15.3816186765   Al  0.0 0.0    1.69072030e-06 -1.62696302e-12  1.94886527e-07
atom      8.7231542232     3.8389060404    20.2132552726   Si  0.0 0.0    6.81099044e-07 -8.75451499e-13 -2.38458943e-07
atom     12.3429908143     3.8389060401    13.5734970634   Si  0.0 0.0    1.05293740e-06  1.74701803e-12 -1.09974214e-06
atom     13.8793461976     3.8389060399    21.5843298203   Mg  0.0 0.0   -9.21597909e-10  1.51846658e-12 -1.16108264e-09
atom     16.0179163280    -0.0000000409    12.7604866849   Mg  0.0 0.0    7.52542877e-07  8.30330804e-13 -4.72989573e-07
atom     18.2256151866    -0.0000000410    19.2448150496   Mg  0.0 0.0    2.74925222e-08  7.10785604e-13  6.26259334e-07
atom     23.5409811747     3.8389060400     7.1881916105   Mg  0.0 0.0   -2.98458648e-08 -1.81157575e-12 -6.23763567e-07
atom     25.7486797999     3.8389060397    13.6725203880   Mg  0.0 0.0   -7.51430308e-07 -1.26201720e-12  4.68970989e-07
atom     15.4718873952     3.8389060400    16.7692235337   Si  0.0 0.0   -1.05248794e-06  1.32819560e-12  1.09781028e-06
atom     19.0917240137     3.8389060400    10.1294650831   Si  0.0 0.0   -6.81055835e-07 -2.17506694e-12  2.41122306e-07
atom     19.8549821256     3.8389060400    14.9611016706   Al  0.0 0.0   -1.68904660e-06 -3.07738004e-12 -1.93028732e-07
atom     21.9116139931    -0.0000000409    11.4719050030   Al  0.0 0.0    1.69071189e-06  1.63798040e-12  1.95055457e-07
atom     22.6748721775    -0.0000000410    16.3035415986   Si  0.0 0.0    6.81108607e-07  8.05135047e-13 -2.38293753e-07
atom     26.2947087716    -0.0000000411     9.6637833922   Si  0.0 0.0    1.05293763e-06 -1.85068696e-12 -1.09961306e-06
atom     -0.0161857958     7.6778121223    12.6681044533   Mg  0.0 0.0   -9.22443821e-10 -1.53445998e-12 -1.03940340e-09
atom      2.1223843381    11.5167182033     3.8442613240   Mg  0.0 0.0    7.52516446e-07 -8.52393492e-13 -4.72915220e-07
atom      4.3300831864    11.5167182030    10.3285897087   Mg  0.0 0.0    2.75334247e-08 -6.14350766e-13  6.26217004e-07
atom      9.6454491812     7.6778121215    -1.7280337094   Mg  0.0 0.0   -2.98333659e-08  1.72340484e-12 -6.23940810e-07
atom     11.8531478103     7.6778121213     4.7562950690   Mg  0.0 0.0   -7.51448346e-07  1.26785259e-12  4.68798060e-07
atom      1.5763554004     7.6778121223     7.8529981720   Si  0.0 0.0   -1.05249106e-06 -1.21424386e-12  1.09788714e-06
atom      5.1961920221     7.6778121219     1.2132397447   Si  0.0 0.0   -6.81051274e-07  2.23527907e-12  2.41070557e-07
atom      5.9594501369     7.6778121217     6.0448763363   Al  0.0 0.0   -1.68906665e-06  3.04883566e-12 -1.93131674e-07
atom      8.0160819992    11.5167182028     2.5556796804   Al  0.0 0.0    1.69072031e-06 -1.62693974e-12  1.94886518e-07
atom      8.7793401856    11.5167182026     7.3873162766   Si  0.0 0.0    6.81099003e-07 -8.75236769e-13 -2.38458944e-07
atom     12.3991767767    11.5167182023     0.7475580673   Si  0.0 0.0    1.05293768e-06  1.74650526e-12 -1.09974206e-06
atom     13.9355321600    11.5167182022     8.7583908243   Mg  0.0 0.0   -9.20610366e-10  1.52600842e-12 -1.16074247e-09
atom     16.0741022904     7.6778121213    -0.0654523111   Mg  0.0 0.0    7.52542874e-07  8.36005323e-13 -4.72989578e-07
atom     18.2818011490     7.6778121212     6.4188760535   Mg  0.0 0.0    2.74924997e-08  7.01416832e-13  6.26259327e-07
atom     23.5971671371    11.5167182022    -5.6377473855   Mg  0.0 0.0   -2.98458630e-08 -1.80922064e-12 -6.23763571e-07
atom     25.8048657623    11.5167182020     0.8465813919   Mg  0.0 0.0   -7.51430302e-07 -1.26935065e-12  4.68971005e-07
atom     15.5280733577    11.5167182022     3.9432845376   Si  0.0 0.0   -1.05248839e-06  1.32797945e-12  1.09781017e-06
atom     19.1479099761    11.5167182022    -2.6964739130   Si  0.0 0.0   -6.81055855e-07 -2.17316212e-12  2.41122300e-07
atom     19.9111680880    11.5167182022     2.1351626745   Al  0.0 0.0   -1.68904661e-06 -3.08385021e-12 -1.93028723e-07
atom     21.9677999555     7.6778121212    -1.3540339931   Al  0.0 0.0    1.69071186e-06  1.64331539e-12  1.95055470e-07
atom     22.7310581399     7.6778121211     3.4776026025   Si  0.0 0.0    6.81108635e-07  7.98116548e-13 -2.38293831e-07
atom     26.3508947340     7.6778121210    -3.1621556039   Si  0.0 0.0    1.05293802e-06 -1.85543307e-12 -1.09961293e-06
atom     -0.0723717586     7.6778121221    25.4940434493   Mg  0.0 0.0   -9.21706109e-10 -1.53477196e-12 -1.03915224e-09
atom      2.0661983753    11.5167182031    16.6702003201   Mg  0.0 0.0    7.52516464e-07 -8.43574893e-13 -4.72915231e-07
atom      4.2738972236    11.5167182028    23.1545287047   Mg  0.0 0.0    2.75334392e-08 -6.22748892e-13  6.26216996e-07
atom      9.5892632184     7.6778121213    11.0979052866   Mg  0.0 0.0   -2.98333685e-08  1.72312706e-12 -6.23940815e-07
atom     11.7969618475     7.6778121211    17.5822340651   Mg  0.0 0.0   -7.51448319e-07  1.27169614e-12  4.68798062e-07
atom      1.5201694376     7.6778121221    20.6789371681   Si  0.0 0.0   -1.05249134e-06 -1.21326555e-12  1.09788706e-06
atom      5.1400060593     7.6778121217    14.0391787407   Si  0.0 0.0   -6.81051269e-07  2.23898169e-12  2.41070561e-07
atom      5.9032641741     7.6778121215    18.8708153323   Al  0.0 0.0   -1.68906665e-06  3.05512926e-12 -1.93131673e-07
atom      7.9598960364    11.5167182026    15.3816186765   Al  0.0 0.0    1.69072032e-06 -1.61971768e-12  1.94886520e-07
atom      8.7231542228    11.5167182024    20.2132552726   Si  0.0 0.0    6.81099042e-07 -8.72957926e-13 -2.38458952e-07
atom     12.3429908139    11.5167182021    13.5734970634   Si  0.0 0.0    1.05293723e-06  1.74902341e-12 -1.09974219e-06
atom     13.8793461972    11.5167182020    21.5843298203   Mg  0.0 0.0   -9.21544633e-10  1.52607840e-12 -1.16102508e-09
atom     16.0179163276     7.6778121211    12.7604866849   Mg  0.0 0.0    7.52542874e-07  8.39237094e-13 -4.72989591e-07
atom     18.2256151862     7.6778121210    19.2448150496   Mg  0.0 0.0    2.74925160e-08  7.01285366e-13  6.26259327e-07
atom     23.5409811743    11.5167182020     7.1881916105   Mg  0.0 0.0   -2.98458644e-08 -1.81788325e-12 -6.23763564e-07
atom     25.7486797995    11.5167182018    13.6725203880   Mg  0.0 0.0   -7.51430296e-07 -1.26022655e-12  4.68971006e-07
atom     15.4718873948    11.5167182020    16.7692235337   Si  0.0 0.0   -1.05248791e-06  1.32958121e-12  1.09781031e-06
atom     19.0917240133    11.5167182020    10.1294650831   Si  0.0 0.0   -6.81055876e-07 -2.17132289e-12  2.41122298e-07
atom     19.8549821252    11.5167182020    14.9611016706   Al  0.0 0.0   -1.68904661e-06 -3.07657748e-12 -1.93028736e-07
atom     21.9116139927     7.6778121210    11.4719050030   Al  0.0 0.0    1.69071189e-06  1.64965325e-12  1.95055456e-07
atom     22.6748721771     7.6778121209    16.3035415986   Si  0.0 0.0    6.81108643e-07  7.99468647e-13 -2.38293847e-07
atom     26.2947087712     7.6778121208     9.6637833922   Si  0.0 0.0    1.05293833e-06 -1.85238234e-12 -1.09961286e-06
atom     -0.0161857962    15.3556242843    12.6681044533   Mg  0.0 0.0   -9.20790372e-10 -1.51691670e-12 -1.03926119e-09
atom      2.1223843377    19.1945303653     3.8442613240   Mg  0.0 0.0    7.52516452e-07 -8.40340444e-13 -4.72915224e-07
atom      4.3300831860    19.1945303651    10.3285897087   Mg  0.0 0.0    2.75334279e-08 -6.15305366e-13  6.26217000e-07
atom      9.6454491808    15.3556242835    -1.7280337094   Mg  0.0 0.0   -2.98333619e-08  1.72207123e-12 -6.23940802e-07
atom     11.8531478099    15.3556242833     4.7562950690   Mg  0.0 0.0   -7.51448340e-07  1.28657969e-12  4.68798050e-07
atom      1.5763554000    15.3556242843     7.8529981720   Si  0.0 0.0   -1.05249178e-06 -1.21146904e-12  1.09788692e-06
atom      5.1961920217    15.3556242839     1.2132397447   Si  0.0 0.0   -6.81051276e-07  2.23144927e-12  2.41070556e-07
atom      5.9594501365    15.3556242837     6.0448763363   Al  0.0 0.0   -1.68906666e-06  3.05406708e-12 -1.93131673e-07
atom      8.0160819988    19.1945303648     2.5556796804   Al  0.0 0.0    1.69072035e-06 -1.62522966e-12  1.94886505e-07
atom      8.7793401852    19.1945303646     7.3873162766   Si  0.0 0.0    6.81099022e-07 -8.79773284e-13 -2.38458943e-07
atom     12.3991767763    19.1945303644     0.7475580673   Si  0.0 0.0    1.05293722e-06  1.75007296e-12 -1.09974221e-06
atom     13.9355321596    19.1945303642     8.7583908243   Mg  0.0 0.0   -9.20736616e-10  1.54401144e-12 -1.16079250e-09
atom     16.0741022900    15.3556242833    -0.0654523111   Mg  0.0 0.0    7.52542872e-07  8.34555781e-13 -4.72989593e-07
atom     18.2818011486    15.3556242832     6.4188760535   Mg  0.0 0.0    2.74924960e-08  7.09097702e-13  6.26259338e-07
atom     23.5971671367    19.1945303642    -5.6377473855   Mg  0.0 0.0   -2.98458602e-08 -1.81055110e-12 -6.23763563e-07
atom     25.8048657619    19.1945303640     0.8465813919   Mg  0.0 0.0   -7.51430311e-07 -1.25701646e-12  4.68971000e-07
atom     15.5280733573    19.1945303642     3.9432845376   Si  0.0 0.0   -1.05248829e-06  1.33267640e-12  1.09781024e-06
atom     19.1479099757    19.1945303643    -2.6964739130   Si  0.0 0.0   -6.81055873e-07 -2.17134484e-12  2.41122305e-07
atom     19.9111680876    19.1945303642     2.1351626745   Al  0.0 0.0   -1.68904661e-06 -3.08108872e-12 -1.93028728e-07
atom     21.9677999551    15.3556242832    -1.3540339931   Al  0.0 0.0    1.69071188e-06  1.64271477e-12  1.95055460e-07
atom     22.7310581395    15.3556242832     3.4776026025   Si  0.0 0.0    6.81108581e-07  8.04212598e-13 -2.38293648e-07
atom     26.3508947336    15.3556242831    -3.1621556039   Si  0.0 0.0    1.05293797e-06 -1.85273670e-12 -1.09961296e-06
atom     -0.0723717590    15.3556242841    25.4940434493   Mg  0.0 0.0   -9.21717149e-10 -1.51607143e-12 -1.03915035e-09
atom      2.0661983749    19.1945303651    16.6702003201   Mg  0.0 0.0    7.52516460e-07 -8.43158097e-13 -4.72915230e-07
atom      4.2738972232    19.1945303649    23.1545287047   Mg  0.0 0.0    2.75334435e-08 -6.11077155e-13  6.26217001e-07
atom      9.5892632180    15.3556242833    11.0979052866   Mg  0.0 0.0   -2.98333707e-08  1.72192900e-12 -6.23940806e-07
atom     11.7969618471    15.3556242831    17.5822340651   Mg  0.0 0.0   -7.51448315e-07  1.28165140e-12  4.68798054e-07
atom      1.5201694372    15.3556242841    20.6789371681   Si  0.0 0.0   -1.05249139e-06 -1.21186111e-12  1.09788703e-06
atom      5.1400060589    15.3556242837    14.0391787407   Si  0.0 0.0   -6.81051326e-07  2.22907692e-12  2.41070743e-07
atom      5.9032641737    15.3556242835    18.8708153323   Al  0.0 0.0   -1.68906664e-06  3.04937096e-12 -1.93131689e-07
atom      7.9598960360    19.1945303646    15.3816186765   Al  0.0 0.0    1.69072032e-06 -1.63156562e-12  1.94886513e-07
atom      8.7231542224    19.1945303644    20.2132552726   Si  0.0 0.0    6.81099019e-07 -8.80622876e-13 -2.38458954e-07
atom     12.3429908135    19.1945303642    13.5734970634   Si  0.0 0.0    1.05293733e-06  1.74587990e-12 -1.09974213e-06
atom     13.8793461968    19.1945303640    21.5843298203   Mg  0.0 0.0   -9.20759853e-10  1.54420809e-12 -1.16078881e-09
atom     16.0179163272    15.3556242831    12.7604866849   Mg  0.0 0.0    7.52542875e-07  8.29477260e-13 -4.72989606e-07
atom     18.2256151858    15.3556242830    19.2448150496   Mg  0.0 0.0    2.74925171e-08  7.09792521e-13  6.26259337e-07
atom     23.5409811739    19.1945303640     7.1881916105   Mg  0.0 0.0   -2.98458610e-08 -1.80830959e-12 -6.23763567e-07
atom     25.7486797991    19.1945303638    13.6725203880   Mg  0.0 0.0   -7.51430294e-07 -1.26206917e-12  4.68970997e-07
atom     15.4718873944    19.1945303640    16.7692235337   Si  0.0 0.0   -1.05248838e-06  1.32780501e-12  1.09781016e-06
atom     19.0917240129    19.1945303641    10.1294650831   Si  0.0 0.0   -6.81055855e-07 -2.17004406e-12  2.41122303e-07
atom     19.8549821248    19.1945303640    14.9611016706   Al  0.0 0.0   -1.68904657e-06 -3.08729095e-12 -1.93028747e-07
atom     21.9116139923    15.3556242830    11.4719050030   Al  0.0 0.0    1.69071188e-06  1.63824758e-12  1.95055461e-07
atom     22.6748721767    15.3556242830    16.3035415986   Si  0.0 0.0    6.81108643e-07  8.00863926e-13 -2.38293845e-07
atom     26.2947087708    15.3556242829     9.6637833922   Si  0.0 0.0    1.05293760e-06 -1.85438931e-12 -1.09961307e-06
energy -1.756948190941593e+03
charge 0.0000
end
