begin
comment uuid: d0dc4e30-e6d6-4620-8877-255d426671bb parent_uuid: a92eb12b-a1c1-421e-9fbe-b522f1045a85 trajectory_step: final_scf
lattice     27.0372728256    -0.0000000004    -9.2050815968
lattice      0.0000000000    23.1024381087     0.0000000000
lattice     -0.6373419832     0.0000000000    26.1665111992
atom     -0.2768881448    -0.0000001743    12.9205214799   Mg  0.0 0.0    5.41739450e-10 -8.70553342e-12 -6.44481200e-11
atom      2.0268902122     3.8504061768     3.9937750546   Mg  0.0 0.0    7.08713192e-07  1.40151264e-12  1.09306721e-06
atom      4.0032970222     3.8504061767    10.6227051566   Mg  0.0 0.0    5.30162756e-07 -2.02386190e-13  4.35672753e-07
atom      9.2802340584    -0.0000001765    -2.4674585006   Mg  0.0 0.0   -5.28979491e-07  3.15781008e-13 -4.36353391e-07
atom     11.2566410227    -0.0000001766     4.1614715094   Mg  0.0 0.0   -7.10210533e-07 -1.31747653e-12 -1.09300745e-06
atom      1.4008155463    -0.0000001743     8.0573087331   Si  0.0 0.0   -1.90145998e-07 -1.18133026e-11  2.80196498e-07
atom      5.1771123554    -0.0000001751     1.4543193725   Si  0.0 0.0    1.53934641e-07 -2.72180165e-11  1.44500429e-06
atom      5.4900158170    -0.0000001754     6.1556452064   Si  0.0 0.0   -3.99262689e-07 -1.99979128e-11  2.44426031e-07
atom      7.7935153786     3.8504061756     1.9996013874   Si  0.0 0.0    3.99143938e-07  2.02214566e-11 -2.44229233e-07
atom      8.1064188203     3.8504061752     6.7009272262   Si  0.0 0.0   -1.54255352e-07  2.74429580e-11 -1.44521712e-06
atom     11.8827156400     3.8504061745     0.0979378391   Si  0.0 0.0    1.90334262e-07  1.18601449e-11 -2.80010434e-07
atom     13.2417482659     3.8504061745     8.3179807059   Mg  0.0 0.0    5.51197801e-10  8.70096588e-12 -1.64372189e-10
atom     15.5455266242    -0.0000001766    -0.6087657270   Mg  0.0 0.0    7.08720861e-07 -1.38157430e-12  1.09301008e-06
atom     17.5219334429    -0.0000001766     6.0201643530   Mg  0.0 0.0    5.30119723e-07  1.77760397e-13  4.35724004e-07
atom     22.7988704783     3.8504061764    -7.0699993410   Mg  0.0 0.0   -5.29027525e-07 -3.20187612e-13 -4.36103402e-07
atom     24.7752774278     3.8504061764    -0.4410693222   Mg  0.0 0.0   -7.10132269e-07  1.32810127e-12 -1.09283348e-06
atom     14.9194519676     3.8504061745     3.4547679541   Si  0.0 0.0   -1.90211940e-07  1.18007876e-11  2.80104332e-07
atom     18.6957487632     3.8504061751    -3.1482214370   Si  0.0 0.0    1.53973895e-07  2.72330697e-11  1.44511465e-06
atom     19.0086522276     3.8504061754     1.5531043950   Si  0.0 0.0   -3.99248151e-07  2.00125891e-11  2.44549901e-07
atom     21.3121517881    -0.0000001756    -2.6029394478   Si  0.0 0.0    3.99192454e-07 -2.02039200e-11 -2.44006202e-07
atom     21.6250552348    -0.0000001753     2.0983863919   Si  0.0 0.0   -1.54257923e-07 -2.74315324e-11 -1.44502233e-06
atom     25.4013520515    -0.0000001747    -4.5046029893   Si  0.0 0.0    1.90342141e-07 -1.18517303e-11 -2.79858233e-07
atom     -0.5955591364    -0.0000001743    26.0037770795   Mg  0.0 0.0    5.42435676e-10 -8.70711815e-12 -6.42307281e-11
atom      1.7082192206     3.8504061768    17.0770306541   Mg  0.0 0.0    7.08713217e-07  1.38596107e-12  1.09306718e-06
atom      3.6846260306     3.8504061767    23.7059607561   Mg  0.0 0.0    5.30162755e-07 -1.92411425e-13  4.35672742e-07
atom      8.9615630667    -0.0000001765    10.6157970990   Mg  0.0 0.0   -5.28979485e-07  3.29178627e-13 -4.36353386e-07
atom     10.9379700311    -0.0000001766    17.2447271090   Mg  0.0 0.0   -7.10210524e-07 -1.33689157e-12 -1.09300744e-06
atom      1.0821445547    -0.0000001743    21.1405643327   Si  0.0 0.0   -1.90146199e-07 -1.18115214e-11  2.80196470e-07
atom      4.8584413638    -0.0000001751    14.5375749721   Si  0.0 0.0    1.53934577e-07 -2.72262206e-11  1.44500428e-06
atom      5.1713448254    -0.0000001754    19.2389008060   Si  0.0 0.0   -3.99262732e-07 -2.00034682e-11  2.44426056e-07
atom      7.4748443870     3.8504061756    15.0828569869   Si  0.0 0.0    3.99143987e-07  2.02027444e-11 -2.44229246e-07
atom      7.7877478287     3.8504061752    19.7841828257   Si  0.0 0.0   -1.54255344e-07  2.74332386e-11 -1.44521712e-06
atom     11.5640446484     3.8504061745    13.1811934386   Si  0.0 0.0    1.90334820e-07  1.18603145e-11 -2.80010266e-07
atom     12.9230772743     3.8504061745    21.4012363055   Mg  0.0 0.0    5.52504740e-10  8.70025853e-12 -1.63922786e-10
atom     15.2268556326    -0.0000001766    12.4744898726   Mg  0.0 0.0    7.08720871e-07 -1.40342120e-12  1.09301008e-06
atom     17.2032624513    -0.0000001766    19.1034199525   Mg  0.0 0.0    5.30119721e-07  1.92528222e-13  4.35724012e-07
atom     22.4801994867     3.8504061764     6.0132562586   Mg  0.0 0.0   -5.29027520e-07 -3.12194305e-13 -4.36103377e-07
atom     24.4566064362     3.8504061764    12.6421862774   Mg  0.0 0.0   -7.10132273e-07  1.31304412e-12 -1.09283344e-06
atom     14.6007809760     3.8504061745    16.5380235537   Si  0.0 0.0   -1.90212470e-07  1.18004536e-11  2.80104167e-07
atom     18.3770777716     3.8504061751     9.9350341626   Si  0.0 0.0    1.53973901e-07  2.72196812e-11  1.44511464e-06
atom     18.6899812359     3.8504061754    14.6363599945   Si  0.0 0.0   -3.99248189e-07  1.99958123e-11  2.44549908e-07
atom     20.9934807965    -0.0000001756    10.4803161518   Si  0.0 0.0    3.99192511e-07 -2.02093003e-11 -2.44006227e-07
atom     21.3063842432    -0.0000001753    15.1816419915   Si  0.0 0.0   -1.54257846e-07 -2.74366898e-11 -1.44502232e-06
atom     25.0826810598    -0.0000001747     8.5786526103   Si  0.0 0.0    1.90342357e-07 -1.18524687e-11 -2.79858196e-07
atom     -0.2768881448     7.7008125286    12.9205214799   Mg  0.0 0.0    5.42855761e-10 -8.71581153e-12 -6.41509558e-11
atom      2.0268902122    11.5512188797     3.9937750546   Mg  0.0 0.0    7.08713182e-07  1.40034946e-12  1.09306719e-06
atom      4.0032970222    11.5512188796    10.6227051566   Mg  0.0 0.0    5.30162763e-07 -1.97422827e-13  4.35672727e-07
atom      9.2802340584     7.7008125264    -2.4674585006   Mg  0.0 0.0   -5.28979495e-07  3.12863531e-13 -4.36353397e-07
atom     11.2566410227     7.7008125263     4.1614715094   Mg  0.0 0.0   -7.10210525e-07 -1.32616320e-12 -1.09300745e-06
atom      1.4008155463     7.7008125285     8.0573087331   Si  0.0 0.0   -1.90146519e-07 -1.18057987e-11  2.80196312e-07
atom      5.1771123554     7.7008125278     1.4543193725   Si  0.0 0.0    1.53934627e-07 -2.72321125e-11  1.44500429e-06
atom      5.4900158170     7.7008125274     6.1556452064   Si  0.0 0.0   -3.99262710e-07 -1.99876496e-11  2.44426051e-07
atom      7.7935153786    11.5512188785     1.9996013874   Si  0.0 0.0    3.99143911e-07  2.02169806e-11 -2.44229219e-07
atom      8.1064188203    11.5512188781     6.7009272262   Si  0.0 0.0   -1.54255330e-07  2.74324594e-11 -1.44521713e-06
atom     11.8827156400    11.5512188774     0.0979378391   Si  0.0 0.0    1.90334410e-07  1.18580030e-11 -2.80010413e-07
atom     13.2417482660    11.5512188774     8.3179807059   Mg  0.0 0.0    5.52062368e-10  8.70282032e-12 -1.64056183e-10
atom     15.5455266242     7.7008125262    -0.6087657270   Mg  0.0 0.0    7.08720848e-07 -1.40263569e-12  1.09301008e-06
atom     17.5219334429     7.7008125263     6.0201643530   Mg  0.0 0.0    5.30119721e-07  2.01999487e-13  4.35724005e-07
atom     22.7988704783    11.5512188793    -7.0699993410   Mg  0.0 0.0   -5.29027534e-07 -3.14108294e-13 -4.36103399e-07
atom     24.7752774278    11.5512188794    -0.4410693222   Mg  0.0 0.0   -7.10132267e-07  1.31774597e-12 -1.09283344e-06
atom     14.9194519676    11.5512188774     3.4547679541   Si  0.0 0.0   -1.90212339e-07  1.18014756e-11  2.80104182e-07
atom     18.6957487632    11.5512188780    -3.1482214370   Si  0.0 0.0    1.53973927e-07  2.72323101e-11  1.44511467e-06
atom     19.0086522276    11.5512188784     1.5531043950   Si  0.0 0.0   -3.99248189e-07  1.99994323e-11  2.44549908e-07
atom     21.3121517881     7.7008125273    -2.6029394478   Si  0.0 0.0    3.99192446e-07 -2.02041483e-11 -2.44006189e-07
atom     21.6250552348     7.7008125276     2.0983863919   Si  0.0 0.0   -1.54257879e-07 -2.74255284e-11 -1.44502229e-06
atom     25.4013520515     7.7008125282    -4.5046029893   Si  0.0 0.0    1.90341963e-07 -1.18506009e-11 -2.79858313e-07
atom     -0.5955591364     7.7008125286    26.0037770795   Mg  0.0 0.0    5.42742526e-10 -8.71371510e-12 -6.41289324e-11
atom      1.7082192206    11.5512188797    17.0770306541   Mg  0.0 0.0    7.08713211e-07  1.39904648e-12  1.09306721e-06
atom      3.6846260306    11.5512188796    23.7059607561   Mg  0.0 0.0    5.30162744e-07 -2.00521859e-13  4.35672747e-07
atom      8.9615630667     7.7008125264    10.6157970990   Mg  0.0 0.0   -5.28979483e-07  3.08900397e-13 -4.36353386e-07
atom     10.9379700311     7.7008125263    17.2447271090   Mg  0.0 0.0   -7.10210532e-07 -1.31721246e-12 -1.09300744e-06
atom      1.0821445547     7.7008125285    21.1405643327   Si  0.0 0.0   -1.90146373e-07 -1.18109503e-11  2.80196385e-07
atom      4.8584413638     7.7008125278    14.5375749721   Si  0.0 0.0    1.53934627e-07 -2.72203000e-11  1.44500432e-06
atom      5.1713448254     7.7008125274    19.2389008060   Si  0.0 0.0   -3.99262740e-07 -1.99906898e-11  2.44426066e-07
atom      7.4748443870    11.5512188785    15.0828569869   Si  0.0 0.0    3.99143950e-07  2.02163875e-11 -2.44229235e-07
atom      7.7877478287    11.5512188781    19.7841828257   Si  0.0 0.0   -1.54255315e-07  2.74273250e-11 -1.44521710e-06
atom     11.5640446484    11.5512188774    13.1811934386   Si  0.0 0.0    1.90334418e-07  1.18564585e-11 -2.80010414e-07
atom     12.9230772743    11.5512188774    21.4012363055   Mg  0.0 0.0    5.52176777e-10  8.70294389e-12 -1.64076398e-10
atom     15.2268556326     7.7008125262    12.4744898726   Mg  0.0 0.0    7.08720872e-07 -1.39141300e-12  1.09301007e-06
atom     17.2032624513     7.7008125263    19.1034199525   Mg  0.0 0.0    5.30119714e-07  1.96397497e-13  4.35724008e-07
atom     22.4801994867    11.5512188793     6.0132562586   Mg  0.0 0.0   -5.29027513e-07 -3.13832207e-13 -4.36103403e-07
atom     24.4566064362    11.5512188794    12.6421862774   Mg  0.0 0.0   -7.10132276e-07  1.31489712e-12 -1.09283346e-06
atom     14.6007809760    11.5512188774    16.5380235537   Si  0.0 0.0   -1.90212326e-07  1.17998554e-11  2.80104189e-07
atom     18.3770777716    11.5512188780     9.9350341626   Si  0.0 0.0    1.53973917e-07  2.72319751e-11  1.44511463e-06
atom     18.6899812359    11.5512188784    14.6363599945   Si  0.0 0.0   -3.99248217e-07  1.99979026e-11  2.44549925e-07
atom     20.9934807965     7.7008125273    10.4803161518   Si  0.0 0.0    3.99192491e-07 -2.02108761e-11 -2.44006206e-07
atom     21.3063842432     7.7008125276    15.1816419915   Si  0.0 0.0   -1.54257865e-07 -2.74202037e-11 -1.44502232e-06
atom     25.0826810598     7.7008125282     8.5786526103   Si  0.0 0.0    1.90341839e-07 -1.18560823e-11 -2.79858381e-07
atom     -0.2768881448    15.4016252315    12.9205214799   Mg  0.0 0.0    5.42425800e-10 -8.71227178e-12 -6.43135687e-11
atom      2.0268902122    19.2520315826     3.9937750546   Mg  0.0 0.0    7.08713191e-07  1.39249039e-12  1.09306720e-06
atom      4.0032970222    19.2520315825    10.6227051566   Mg  0.0 0.0    5.30162751e-07 -2.00470540e-13  4.35672749e-07
atom      9.2802340584    15.4016252293    -2.4674585006   Mg  0.0 0.0   -5.28979496e-07  3.25178515e-13 -4.36353400e-07
atom     11.2566410227    15.4016252292     4.1614715094   Mg  0.0 0.0   -7.10210537e-07 -1.32673402e-12 -1.09300743e-06
atom      1.4008155463    15.4016252314     8.0573087331   Si  0.0 0.0   -1.90146243e-07 -1.18140604e-11  2.80196417e-07
atom      5.1771123554    15.4016252307     1.4543193725   Si  0.0 0.0    1.53934595e-07 -2.72220647e-11  1.44500432e-06
atom      5.4900158170    15.4016252303     6.1556452064   Si  0.0 0.0   -3.99262746e-07 -2.00046443e-11  2.44426069e-07
atom      7.7935153786    19.2520315814     1.9996013874   Si  0.0 0.0    3.99143947e-07  2.01980123e-11 -2.44229234e-07
atom      8.1064188203    19.2520315810     6.7009272262   Si  0.0 0.0   -1.54255347e-07  2.74212857e-11 -1.44521703e-06
atom     11.8827156400    19.2520315803     0.0979378391   Si  0.0 0.0    1.90334892e-07  1.18556682e-11 -2.80010244e-07
atom     13.2417482659    19.2520315803     8.3179807059   Mg  0.0 0.0    5.52465387e-10  8.71355086e-12 -1.64141548e-10
atom     15.5455266242    15.4016252291    -0.6087657270   Mg  0.0 0.0    7.08720857e-07 -1.39880101e-12  1.09301008e-06
atom     17.5219334429    15.4016252292     6.0201643530   Mg  0.0 0.0    5.30119720e-07  1.96331268e-13  4.35723992e-07
atom     22.7988704783    19.2520315822    -7.0699993410   Mg  0.0 0.0   -5.29027525e-07 -3.06131361e-13 -4.36103403e-07
atom     24.7752774278    19.2520315823    -0.4410693222   Mg  0.0 0.0   -7.10132267e-07  1.30679431e-12 -1.09283346e-06
atom     14.9194519676    19.2520315803     3.4547679541   Si  0.0 0.0   -1.90212430e-07  1.17986498e-11  2.80104163e-07
atom     18.6957487632    19.2520315809    -3.1482214370   Si  0.0 0.0    1.53973911e-07  2.72196284e-11  1.44511468e-06
atom     19.0086522276    19.2520315813     1.5531043950   Si  0.0 0.0   -3.99248217e-07  1.99865218e-11  2.44549917e-07
atom     21.3121517881    15.4016252302    -2.6029394478   Si  0.0 0.0    3.99192452e-07 -2.02092164e-11 -2.44006196e-07
atom     21.6250552348    15.4016252305     2.0983863919   Si  0.0 0.0   -1.54257857e-07 -2.74278858e-11 -1.44502228e-06
atom     25.4013520515    15.4016252311    -4.5046029893   Si  0.0 0.0    1.90341902e-07 -1.18547504e-11 -2.79858360e-07
atom     -0.5955591364    15.4016252315    26.0037770795   Mg  0.0 0.0    5.42816936e-10 -8.71505586e-12 -6.41669448e-11
atom      1.7082192206    19.2520315826    17.0770306541   Mg  0.0 0.0    7.08713213e-07  1.41000414e-12  1.09306719e-06
atom      3.6846260306    19.2520315825    23.7059607561   Mg  0.0 0.0    5.30162753e-07 -2.07624966e-13  4.35672745e-07
atom      8.9615630667    15.4016252293    10.6157970990   Mg  0.0 0.0   -5.28979489e-07  3.15783275e-13 -4.36353402e-07
atom     10.9379700311    15.4016252292    17.2447271090   Mg  0.0 0.0   -7.10210522e-07 -1.31649711e-12 -1.09300743e-06
atom      1.0821445547    15.4016252314    21.1405643327   Si  0.0 0.0   -1.90146439e-07 -1.18087492e-11  2.80196342e-07
atom      4.8584413638    15.4016252307    14.5375749721   Si  0.0 0.0    1.53934647e-07 -2.72248441e-11  1.44500433e-06
atom      5.1713448254    15.4016252303    19.2389008060   Si  0.0 0.0   -3.99262735e-07 -1.99955064e-11  2.44426052e-07
atom      7.4748443870    19.2520315814    15.0828569869   Si  0.0 0.0    3.99143924e-07  2.02157771e-11 -2.44229228e-07
atom      7.7877478287    19.2520315810    19.7841828257   Si  0.0 0.0   -1.54255331e-07  2.74383593e-11 -1.44521710e-06
atom     11.5640446484    19.2520315803    13.1811934386   Si  0.0 0.0    1.90334327e-07  1.18570205e-11 -2.80010430e-07
atom     12.9230772743    19.2520315803    21.4012363055   Mg  0.0 0.0    5.51052563e-10  8.70895528e-12 -1.64483168e-10
atom     15.2268556326    15.4016252291    12.4744898726   Mg  0.0 0.0    7.08720863e-07 -1.38712168e-12  1.09301009e-06
atom     17.2032624513    15.4016252292    19.1034199525   Mg  0.0 0.0    5.30119715e-07  1.87655780e-13  4.35724005e-07
atom     22.4801994867    19.2520315822     6.0132562586   Mg  0.0 0.0   -5.29027523e-07 -3.14778134e-13 -4.36103383e-07
atom     24.4566064362    19.2520315823    12.6421862774   Mg  0.0 0.0   -7.10132273e-07  1.32390385e-12 -1.09283345e-06
atom     14.6007809760    19.2520315803    16.5380235537   Si  0.0 0.0   -1.90211847e-07  1.18004611e-11  2.80104356e-07
atom     18.3770777716    19.2520315809     9.9350341626   Si  0.0 0.0    1.53973905e-07  2.72312787e-11  1.44511474e-06
atom     18.6899812359    19.2520315813    14.6363599945   Si  0.0 0.0   -3.99248177e-07  2.00065900e-11  2.44549906e-07
atom     20.9934807965    15.4016252302    10.4803161518   Si  0.0 0.0    3.99192458e-07 -2.01976223e-11 -2.44006187e-07
atom     21.3063842432    15.4016252305    15.1816419915   Si  0.0 0.0   -1.54257895e-07 -2.74291206e-11 -1.44502230e-06
atom     25.0826810598    15.4016252311     8.5786526103   Si  0.0 0.0    1.90342115e-07 -1.18494298e-11 -2.79858281e-07
energy -1.419482499035508e+03
charge 0.0000
end
