
     Program PWSCF v.6.3 starts on 20Feb2020 at 13:29:57 

     This program is part of the open-source Quantum ESPRESSO suite
     for quantum simulation of materials; please cite
         "P. Giannozzi et al., J. Phys.:Condens. Matter 21 395502 (2009);
         "P. Giannozzi et al., J. Phys.:Condens. Matter 29 465901 (2017);
          URL http://www.quantum-espresso.org", 
     in publications or presentations arising from this work. More details at
     http://www.quantum-espresso.org/quote

 *** WARNING: using old-style file format, will disappear from next version ***

     Parallel version (MPI & OpenMP), running on      36 processor cores
     Number of MPI processes:                36
     Threads/MPI process:                     1

     MPI processes distributed on     1 nodes
     K-points division:     npool     =       2
     R & G space division:  proc/nbgrp/npool/nimage =      18
     Reading input from aiida.in
Warning: card &IONS ignored
Warning: card   !PRESS_CONV_THR = 0.05                 ! JUST FOR VOLUME RELAXATIONS ignored
Warning: card / ignored

     Current dimensions of program PWSCF are:
     Max number of different atomic species (ntypx) = 10
     Max number of k-points (npk) =  40000
     Max angular momentum in pseudopotentials (lmaxx) =  3
               file Al.pbe-n-kjpaw_psl.1.0.0.UPF: wavefunction(s)  3S 3P renormalized

     Subspace diagonalization in iterative solution of the eigenvalue problem:
     one sub-group per band group will be used
     scalapack distributed-memory algorithm (size of sub-group:  3*  3 procs)

     Found symmetry operation: I + (  0.0000 -0.5000 -0.5000)
     This is a supercell, fractional translations are disabled
 
     Parallelization info
     --------------------
     sticks:   dense  smooth     PW     G-vecs:    dense   smooth      PW
     Min          45      36     10                  986      696     115
     Max          47      37     12                  988      699     119
     Sum         829     665    197                17773    12557    2109
 


     bravais-lattice index     =            0
     lattice parameter (alat)  =       7.1810  a.u.
     unit-cell volume          =     370.2946 (a.u.)^3
     number of atoms/cell      =            4
     number of atomic types    =            1
     number of electrons       =        12.00
     number of Kohn-Sham states=           10
     kinetic-energy cutoff     =      40.0000  Ry
     charge density cutoff     =     200.0000  Ry
     convergence threshold     =      1.0E-12
     mixing beta               =       0.4000
     number of iterations used =            8  local-TF  mixing
     Exchange-correlation      = SLA PW PBX PBC ( 1  4  3  4 0 0)

     celldm(1)=   7.180959  celldm(2)=   0.000000  celldm(3)=   0.000000
     celldm(4)=   0.000000  celldm(5)=   0.000000  celldm(6)=   0.000000

     crystal axes: (cart. coord. in units of alat)
               a(1) = (   1.000000   0.000000   0.000000 )  
               a(2) = (   0.000000   1.000000   0.000000 )  
               a(3) = (   0.000000   0.000000   1.000000 )  

     reciprocal axes: (cart. coord. in units 2 pi/alat)
               b(1) = (  1.000000  0.000000  0.000000 )  
               b(2) = (  0.000000  1.000000  0.000000 )  
               b(3) = (  0.000000  0.000000  1.000000 )  


     PseudoPot. # 1 for Al read from file:
     /users/aglensk/Dropbox/Albert/scripts/dotfiles/scripts/potentials/quantum_espresso/pseudo_SSSPefV1.1_alalloy/Al.pbe-n-kjpaw_psl.1.0.0.UPF
     MD5 check sum: cfc449ca30b5f3223ec38ddd88ac046d
     Pseudo is Projector augmented-wave + core cor, Zval =  3.0
     Generated using "atomic" code by A. Dal Corso v.5.1
     Shape of augmentation charge: PSQ
     Using radial grid of 1135 points,  6 beta functions with: 
                l(1) =   0
                l(2) =   0
                l(3) =   1
                l(4) =   1
                l(5) =   2
                l(6) =   2
     Q(r) pseudized with 0 coefficients 


     atomic species   valence    mass     pseudopotential
        Al             3.00    26.98154     Al( 1.00)

     No symmetry found


                                    s                        frac. trans.

      isym =  1     identity                                     

 cryst.   s( 1) = (     1          0          0      )
                  (     0          1          0      )
                  (     0          0          1      )

 cart.    s( 1) = (  1.0000000  0.0000000  0.0000000 )
                  (  0.0000000  1.0000000  0.0000000 )
                  (  0.0000000  0.0000000  1.0000000 )


   Cartesian axes

     site n.     atom                  positions (alat units)
         1           Al  tau(   1) = (   0.0000000   0.0000000   0.0000000  )
         2           Al  tau(   2) = (   0.0000000   0.5000000   0.5000000  )
         3           Al  tau(   3) = (   0.5000000   0.0000000   0.5000000  )
         4           Al  tau(   4) = (   0.5000000   0.5000000   0.0000000  )

   Crystallographic axes

     site n.     atom                  positions (cryst. coord.)
         1           Al  tau(   1) = (  0.0000000  0.0000000  0.0000000  )
         2           Al  tau(   2) = (  0.0000000  0.5000000  0.5000000  )
         3           Al  tau(   3) = (  0.5000000  0.0000000  0.5000000  )
         4           Al  tau(   4) = (  0.5000000  0.5000000  0.0000000  )

     number of k points=  4631  Methfessel-Paxton smearing, width (Ry)=  0.0441
                       cart. coord. in units 2pi/alat
        k(    1) = (   0.0000000   0.0000000   0.0000000), wk =   0.0002160
        k(    2) = (   0.0000000   0.0000000   0.0476190), wk =   0.0004319
        k(    3) = (   0.0000000   0.0000000   0.0952381), wk =   0.0004319
        k(    4) = (   0.0000000   0.0000000   0.1428571), wk =   0.0004319
        k(    5) = (   0.0000000   0.0000000   0.1904762), wk =   0.0004319
        k(    6) = (   0.0000000   0.0000000   0.2380952), wk =   0.0004319
        k(    7) = (   0.0000000   0.0000000   0.2857143), wk =   0.0004319
        k(    8) = (   0.0000000   0.0000000   0.3333333), wk =   0.0004319
        k(    9) = (   0.0000000   0.0000000   0.3809524), wk =   0.0004319
        k(   10) = (   0.0000000   0.0000000   0.4285714), wk =   0.0004319
        k(   11) = (   0.0000000   0.0000000   0.4761905), wk =   0.0004319
        k(   12) = (   0.0000000   0.0476190   0.0000000), wk =   0.0004319
        k(   13) = (   0.0000000   0.0476190   0.0476190), wk =   0.0004319
        k(   14) = (   0.0000000   0.0476190   0.0952381), wk =   0.0004319
        k(   15) = (   0.0000000   0.0476190   0.1428571), wk =   0.0004319
        k(   16) = (   0.0000000   0.0476190   0.1904762), wk =   0.0004319
        k(   17) = (   0.0000000   0.0476190   0.2380952), wk =   0.0004319
        k(   18) = (   0.0000000   0.0476190   0.2857143), wk =   0.0004319
        k(   19) = (   0.0000000   0.0476190   0.3333333), wk =   0.0004319
        k(   20) = (   0.0000000   0.0476190   0.3809524), wk =   0.0004319
        k(   21) = (   0.0000000   0.0476190   0.4285714), wk =   0.0004319
        k(   22) = (   0.0000000   0.0476190   0.4761905), wk =   0.0004319
        k(   23) = (   0.0000000   0.0476190  -0.4761905), wk =   0.0004319
        k(   24) = (   0.0000000   0.0476190  -0.4285714), wk =   0.0004319
        k(   25) = (   0.0000000   0.0476190  -0.3809524), wk =   0.0004319
        k(   26) = (   0.0000000   0.0476190  -0.3333333), wk =   0.0004319
        k(   27) = (   0.0000000   0.0476190  -0.2857143), wk =   0.0004319
        k(   28) = (   0.0000000   0.0476190  -0.2380952), wk =   0.0004319
        k(   29) = (   0.0000000   0.0476190  -0.1904762), wk =   0.0004319
        k(   30) = (   0.0000000   0.0476190  -0.1428571), wk =   0.0004319
        k(   31) = (   0.0000000   0.0476190  -0.0952381), wk =   0.0004319
        k(   32) = (   0.0000000   0.0476190  -0.0476190), wk =   0.0004319
        k(   33) = (   0.0000000   0.0952381   0.0000000), wk =   0.0004319
        k(   34) = (   0.0000000   0.0952381   0.0476190), wk =   0.0004319
        k(   35) = (   0.0000000   0.0952381   0.0952381), wk =   0.0004319
        k(   36) = (   0.0000000   0.0952381   0.1428571), wk =   0.0004319
        k(   37) = (   0.0000000   0.0952381   0.1904762), wk =   0.0004319
        k(   38) = (   0.0000000   0.0952381   0.2380952), wk =   0.0004319
        k(   39) = (   0.0000000   0.0952381   0.2857143), wk =   0.0004319
        k(   40) = (   0.0000000   0.0952381   0.3333333), wk =   0.0004319
        k(   41) = (   0.0000000   0.0952381   0.3809524), wk =   0.0004319
        k(   42) = (   0.0000000   0.0952381   0.4285714), wk =   0.0004319
        k(   43) = (   0.0000000   0.0952381   0.4761905), wk =   0.0004319
        k(   44) = (   0.0000000   0.0952381  -0.4761905), wk =   0.0004319
        k(   45) = (   0.0000000   0.0952381  -0.4285714), wk =   0.0004319
        k(   46) = (   0.0000000   0.0952381  -0.3809524), wk =   0.0004319
        k(   47) = (   0.0000000   0.0952381  -0.3333333), wk =   0.0004319
        k(   48) = (   0.0000000   0.0952381  -0.2857143), wk =   0.0004319
        k(   49) = (   0.0000000   0.0952381  -0.2380952), wk =   0.0004319
        k(   50) = (   0.0000000   0.0952381  -0.1904762), wk =   0.0004319
        k(   51) = (   0.0000000   0.0952381  -0.1428571), wk =   0.0004319
        k(   52) = (   0.0000000   0.0952381  -0.0952381), wk =   0.0004319
        k(   53) = (   0.0000000   0.0952381  -0.0476190), wk =   0.0004319
        k(   54) = (   0.0000000   0.1428571   0.0000000), wk =   0.0004319
        k(   55) = (   0.0000000   0.1428571   0.0476190), wk =   0.0004319
        k(   56) = (   0.0000000   0.1428571   0.0952381), wk =   0.0004319
        k(   57) = (   0.0000000   0.1428571   0.1428571), wk =   0.0004319
        k(   58) = (   0.0000000   0.1428571   0.1904762), wk =   0.0004319
        k(   59) = (   0.0000000   0.1428571   0.2380952), wk =   0.0004319
        k(   60) = (   0.0000000   0.1428571   0.2857143), wk =   0.0004319
        k(   61) = (   0.0000000   0.1428571   0.3333333), wk =   0.0004319
        k(   62) = (   0.0000000   0.1428571   0.3809524), wk =   0.0004319
        k(   63) = (   0.0000000   0.1428571   0.4285714), wk =   0.0004319
        k(   64) = (   0.0000000   0.1428571   0.4761905), wk =   0.0004319
        k(   65) = (   0.0000000   0.1428571  -0.4761905), wk =   0.0004319
        k(   66) = (   0.0000000   0.1428571  -0.4285714), wk =   0.0004319
        k(   67) = (   0.0000000   0.1428571  -0.3809524), wk =   0.0004319
        k(   68) = (   0.0000000   0.1428571  -0.3333333), wk =   0.0004319
        k(   69) = (   0.0000000   0.1428571  -0.2857143), wk =   0.0004319
        k(   70) = (   0.0000000   0.1428571  -0.2380952), wk =   0.0004319
        k(   71) = (   0.0000000   0.1428571  -0.1904762), wk =   0.0004319
        k(   72) = (   0.0000000   0.1428571  -0.1428571), wk =   0.0004319
        k(   73) = (   0.0000000   0.1428571  -0.0952381), wk =   0.0004319
        k(   74) = (   0.0000000   0.1428571  -0.0476190), wk =   0.0004319
        k(   75) = (   0.0000000   0.1904762   0.0000000), wk =   0.0004319
        k(   76) = (   0.0000000   0.1904762   0.0476190), wk =   0.0004319
        k(   77) = (   0.0000000   0.1904762   0.0952381), wk =   0.0004319
        k(   78) = (   0.0000000   0.1904762   0.1428571), wk =   0.0004319
        k(   79) = (   0.0000000   0.1904762   0.1904762), wk =   0.0004319
        k(   80) = (   0.0000000   0.1904762   0.2380952), wk =   0.0004319
        k(   81) = (   0.0000000   0.1904762   0.2857143), wk =   0.0004319
        k(   82) = (   0.0000000   0.1904762   0.3333333), wk =   0.0004319
        k(   83) = (   0.0000000   0.1904762   0.3809524), wk =   0.0004319
        k(   84) = (   0.0000000   0.1904762   0.4285714), wk =   0.0004319
        k(   85) = (   0.0000000   0.1904762   0.4761905), wk =   0.0004319
        k(   86) = (   0.0000000   0.1904762  -0.4761905), wk =   0.0004319
        k(   87) = (   0.0000000   0.1904762  -0.4285714), wk =   0.0004319
        k(   88) = (   0.0000000   0.1904762  -0.3809524), wk =   0.0004319
        k(   89) = (   0.0000000   0.1904762  -0.3333333), wk =   0.0004319
        k(   90) = (   0.0000000   0.1904762  -0.2857143), wk =   0.0004319
        k(   91) = (   0.0000000   0.1904762  -0.2380952), wk =   0.0004319
        k(   92) = (   0.0000000   0.1904762  -0.1904762), wk =   0.0004319
        k(   93) = (   0.0000000   0.1904762  -0.1428571), wk =   0.0004319
        k(   94) = (   0.0000000   0.1904762  -0.0952381), wk =   0.0004319
        k(   95) = (   0.0000000   0.1904762  -0.0476190), wk =   0.0004319
        k(   96) = (   0.0000000   0.2380952   0.0000000), wk =   0.0004319
        k(   97) = (   0.0000000   0.2380952   0.0476190), wk =   0.0004319
        k(   98) = (   0.0000000   0.2380952   0.0952381), wk =   0.0004319
        k(   99) = (   0.0000000   0.2380952   0.1428571), wk =   0.0004319
        k(  100) = (   0.0000000   0.2380952   0.1904762), wk =   0.0004319
        k(  101) = (   0.0000000   0.2380952   0.2380952), wk =   0.0004319
        k(  102) = (   0.0000000   0.2380952   0.2857143), wk =   0.0004319
        k(  103) = (   0.0000000   0.2380952   0.3333333), wk =   0.0004319
        k(  104) = (   0.0000000   0.2380952   0.3809524), wk =   0.0004319
        k(  105) = (   0.0000000   0.2380952   0.4285714), wk =   0.0004319
        k(  106) = (   0.0000000   0.2380952   0.4761905), wk =   0.0004319
        k(  107) = (   0.0000000   0.2380952  -0.4761905), wk =   0.0004319
        k(  108) = (   0.0000000   0.2380952  -0.4285714), wk =   0.0004319
        k(  109) = (   0.0000000   0.2380952  -0.3809524), wk =   0.0004319
        k(  110) = (   0.0000000   0.2380952  -0.3333333), wk =   0.0004319
        k(  111) = (   0.0000000   0.2380952  -0.2857143), wk =   0.0004319
        k(  112) = (   0.0000000   0.2380952  -0.2380952), wk =   0.0004319
        k(  113) = (   0.0000000   0.2380952  -0.1904762), wk =   0.0004319
        k(  114) = (   0.0000000   0.2380952  -0.1428571), wk =   0.0004319
        k(  115) = (   0.0000000   0.2380952  -0.0952381), wk =   0.0004319
        k(  116) = (   0.0000000   0.2380952  -0.0476190), wk =   0.0004319
        k(  117) = (   0.0000000   0.2857143   0.0000000), wk =   0.0004319
        k(  118) = (   0.0000000   0.2857143   0.0476190), wk =   0.0004319
        k(  119) = (   0.0000000   0.2857143   0.0952381), wk =   0.0004319
        k(  120) = (   0.0000000   0.2857143   0.1428571), wk =   0.0004319
        k(  121) = (   0.0000000   0.2857143   0.1904762), wk =   0.0004319
        k(  122) = (   0.0000000   0.2857143   0.2380952), wk =   0.0004319
        k(  123) = (   0.0000000   0.2857143   0.2857143), wk =   0.0004319
        k(  124) = (   0.0000000   0.2857143   0.3333333), wk =   0.0004319
        k(  125) = (   0.0000000   0.2857143   0.3809524), wk =   0.0004319
        k(  126) = (   0.0000000   0.2857143   0.4285714), wk =   0.0004319
        k(  127) = (   0.0000000   0.2857143   0.4761905), wk =   0.0004319
        k(  128) = (   0.0000000   0.2857143  -0.4761905), wk =   0.0004319
        k(  129) = (   0.0000000   0.2857143  -0.4285714), wk =   0.0004319
        k(  130) = (   0.0000000   0.2857143  -0.3809524), wk =   0.0004319
        k(  131) = (   0.0000000   0.2857143  -0.3333333), wk =   0.0004319
        k(  132) = (   0.0000000   0.2857143  -0.2857143), wk =   0.0004319
        k(  133) = (   0.0000000   0.2857143  -0.2380952), wk =   0.0004319
        k(  134) = (   0.0000000   0.2857143  -0.1904762), wk =   0.0004319
        k(  135) = (   0.0000000   0.2857143  -0.1428571), wk =   0.0004319
        k(  136) = (   0.0000000   0.2857143  -0.0952381), wk =   0.0004319
        k(  137) = (   0.0000000   0.2857143  -0.0476190), wk =   0.0004319
        k(  138) = (   0.0000000   0.3333333   0.0000000), wk =   0.0004319
        k(  139) = (   0.0000000   0.3333333   0.0476190), wk =   0.0004319
        k(  140) = (   0.0000000   0.3333333   0.0952381), wk =   0.0004319
        k(  141) = (   0.0000000   0.3333333   0.1428571), wk =   0.0004319
        k(  142) = (   0.0000000   0.3333333   0.1904762), wk =   0.0004319
        k(  143) = (   0.0000000   0.3333333   0.2380952), wk =   0.0004319
        k(  144) = (   0.0000000   0.3333333   0.2857143), wk =   0.0004319
        k(  145) = (   0.0000000   0.3333333   0.3333333), wk =   0.0004319
        k(  146) = (   0.0000000   0.3333333   0.3809524), wk =   0.0004319
        k(  147) = (   0.0000000   0.3333333   0.4285714), wk =   0.0004319
        k(  148) = (   0.0000000   0.3333333   0.4761905), wk =   0.0004319
        k(  149) = (   0.0000000   0.3333333  -0.4761905), wk =   0.0004319
        k(  150) = (   0.0000000   0.3333333  -0.4285714), wk =   0.0004319
        k(  151) = (   0.0000000   0.3333333  -0.3809524), wk =   0.0004319
        k(  152) = (   0.0000000   0.3333333  -0.3333333), wk =   0.0004319
        k(  153) = (   0.0000000   0.3333333  -0.2857143), wk =   0.0004319
        k(  154) = (   0.0000000   0.3333333  -0.2380952), wk =   0.0004319
        k(  155) = (   0.0000000   0.3333333  -0.1904762), wk =   0.0004319
        k(  156) = (   0.0000000   0.3333333  -0.1428571), wk =   0.0004319
        k(  157) = (   0.0000000   0.3333333  -0.0952381), wk =   0.0004319
        k(  158) = (   0.0000000   0.3333333  -0.0476190), wk =   0.0004319
        k(  159) = (   0.0000000   0.3809524   0.0000000), wk =   0.0004319
        k(  160) = (   0.0000000   0.3809524   0.0476190), wk =   0.0004319
        k(  161) = (   0.0000000   0.3809524   0.0952381), wk =   0.0004319
        k(  162) = (   0.0000000   0.3809524   0.1428571), wk =   0.0004319
        k(  163) = (   0.0000000   0.3809524   0.1904762), wk =   0.0004319
        k(  164) = (   0.0000000   0.3809524   0.2380952), wk =   0.0004319
        k(  165) = (   0.0000000   0.3809524   0.2857143), wk =   0.0004319
        k(  166) = (   0.0000000   0.3809524   0.3333333), wk =   0.0004319
        k(  167) = (   0.0000000   0.3809524   0.3809524), wk =   0.0004319
        k(  168) = (   0.0000000   0.3809524   0.4285714), wk =   0.0004319
        k(  169) = (   0.0000000   0.3809524   0.4761905), wk =   0.0004319
        k(  170) = (   0.0000000   0.3809524  -0.4761905), wk =   0.0004319
        k(  171) = (   0.0000000   0.3809524  -0.4285714), wk =   0.0004319
        k(  172) = (   0.0000000   0.3809524  -0.3809524), wk =   0.0004319
        k(  173) = (   0.0000000   0.3809524  -0.3333333), wk =   0.0004319
        k(  174) = (   0.0000000   0.3809524  -0.2857143), wk =   0.0004319
        k(  175) = (   0.0000000   0.3809524  -0.2380952), wk =   0.0004319
        k(  176) = (   0.0000000   0.3809524  -0.1904762), wk =   0.0004319
        k(  177) = (   0.0000000   0.3809524  -0.1428571), wk =   0.0004319
        k(  178) = (   0.0000000   0.3809524  -0.0952381), wk =   0.0004319
        k(  179) = (   0.0000000   0.3809524  -0.0476190), wk =   0.0004319
        k(  180) = (   0.0000000   0.4285714   0.0000000), wk =   0.0004319
        k(  181) = (   0.0000000   0.4285714   0.0476190), wk =   0.0004319
        k(  182) = (   0.0000000   0.4285714   0.0952381), wk =   0.0004319
        k(  183) = (   0.0000000   0.4285714   0.1428571), wk =   0.0004319
        k(  184) = (   0.0000000   0.4285714   0.1904762), wk =   0.0004319
        k(  185) = (   0.0000000   0.4285714   0.2380952), wk =   0.0004319
        k(  186) = (   0.0000000   0.4285714   0.2857143), wk =   0.0004319
        k(  187) = (   0.0000000   0.4285714   0.3333333), wk =   0.0004319
        k(  188) = (   0.0000000   0.4285714   0.3809524), wk =   0.0004319
        k(  189) = (   0.0000000   0.4285714   0.4285714), wk =   0.0004319
        k(  190) = (   0.0000000   0.4285714   0.4761905), wk =   0.0004319
        k(  191) = (   0.0000000   0.4285714  -0.4761905), wk =   0.0004319
        k(  192) = (   0.0000000   0.4285714  -0.4285714), wk =   0.0004319
        k(  193) = (   0.0000000   0.4285714  -0.3809524), wk =   0.0004319
        k(  194) = (   0.0000000   0.4285714  -0.3333333), wk =   0.0004319
        k(  195) = (   0.0000000   0.4285714  -0.2857143), wk =   0.0004319
        k(  196) = (   0.0000000   0.4285714  -0.2380952), wk =   0.0004319
        k(  197) = (   0.0000000   0.4285714  -0.1904762), wk =   0.0004319
        k(  198) = (   0.0000000   0.4285714  -0.1428571), wk =   0.0004319
        k(  199) = (   0.0000000   0.4285714  -0.0952381), wk =   0.0004319
        k(  200) = (   0.0000000   0.4285714  -0.0476190), wk =   0.0004319
        k(  201) = (   0.0000000   0.4761905   0.0000000), wk =   0.0004319
        k(  202) = (   0.0000000   0.4761905   0.0476190), wk =   0.0004319
        k(  203) = (   0.0000000   0.4761905   0.0952381), wk =   0.0004319
        k(  204) = (   0.0000000   0.4761905   0.1428571), wk =   0.0004319
        k(  205) = (   0.0000000   0.4761905   0.1904762), wk =   0.0004319
        k(  206) = (   0.0000000   0.4761905   0.2380952), wk =   0.0004319
        k(  207) = (   0.0000000   0.4761905   0.2857143), wk =   0.0004319
        k(  208) = (   0.0000000   0.4761905   0.3333333), wk =   0.0004319
        k(  209) = (   0.0000000   0.4761905   0.3809524), wk =   0.0004319
        k(  210) = (   0.0000000   0.4761905   0.4285714), wk =   0.0004319
        k(  211) = (   0.0000000   0.4761905   0.4761905), wk =   0.0004319
        k(  212) = (   0.0000000   0.4761905  -0.4761905), wk =   0.0004319
        k(  213) = (   0.0000000   0.4761905  -0.4285714), wk =   0.0004319
        k(  214) = (   0.0000000   0.4761905  -0.3809524), wk =   0.0004319
        k(  215) = (   0.0000000   0.4761905  -0.3333333), wk =   0.0004319
        k(  216) = (   0.0000000   0.4761905  -0.2857143), wk =   0.0004319
        k(  217) = (   0.0000000   0.4761905  -0.2380952), wk =   0.0004319
        k(  218) = (   0.0000000   0.4761905  -0.1904762), wk =   0.0004319
        k(  219) = (   0.0000000   0.4761905  -0.1428571), wk =   0.0004319
        k(  220) = (   0.0000000   0.4761905  -0.0952381), wk =   0.0004319
        k(  221) = (   0.0000000   0.4761905  -0.0476190), wk =   0.0004319
        k(  222) = (   0.0476190   0.0000000   0.0000000), wk =   0.0004319
        k(  223) = (   0.0476190   0.0000000   0.0476190), wk =   0.0004319
        k(  224) = (   0.0476190   0.0000000   0.0952381), wk =   0.0004319
        k(  225) = (   0.0476190   0.0000000   0.1428571), wk =   0.0004319
        k(  226) = (   0.0476190   0.0000000   0.1904762), wk =   0.0004319
        k(  227) = (   0.0476190   0.0000000   0.2380952), wk =   0.0004319
        k(  228) = (   0.0476190   0.0000000   0.2857143), wk =   0.0004319
        k(  229) = (   0.0476190   0.0000000   0.3333333), wk =   0.0004319
        k(  230) = (   0.0476190   0.0000000   0.3809524), wk =   0.0004319
        k(  231) = (   0.0476190   0.0000000   0.4285714), wk =   0.0004319
        k(  232) = (   0.0476190   0.0000000   0.4761905), wk =   0.0004319
        k(  233) = (   0.0476190   0.0000000  -0.4761905), wk =   0.0004319
        k(  234) = (   0.0476190   0.0000000  -0.4285714), wk =   0.0004319
        k(  235) = (   0.0476190   0.0000000  -0.3809524), wk =   0.0004319
        k(  236) = (   0.0476190   0.0000000  -0.3333333), wk =   0.0004319
        k(  237) = (   0.0476190   0.0000000  -0.2857143), wk =   0.0004319
        k(  238) = (   0.0476190   0.0000000  -0.2380952), wk =   0.0004319
        k(  239) = (   0.0476190   0.0000000  -0.1904762), wk =   0.0004319
        k(  240) = (   0.0476190   0.0000000  -0.1428571), wk =   0.0004319
        k(  241) = (   0.0476190   0.0000000  -0.0952381), wk =   0.0004319
        k(  242) = (   0.0476190   0.0000000  -0.0476190), wk =   0.0004319
        k(  243) = (   0.0476190   0.0476190   0.0000000), wk =   0.0004319
        k(  244) = (   0.0476190   0.0476190   0.0476190), wk =   0.0004319
        k(  245) = (   0.0476190   0.0476190   0.0952381), wk =   0.0004319
        k(  246) = (   0.0476190   0.0476190   0.1428571), wk =   0.0004319
        k(  247) = (   0.0476190   0.0476190   0.1904762), wk =   0.0004319
        k(  248) = (   0.0476190   0.0476190   0.2380952), wk =   0.0004319
        k(  249) = (   0.0476190   0.0476190   0.2857143), wk =   0.0004319
        k(  250) = (   0.0476190   0.0476190   0.3333333), wk =   0.0004319
        k(  251) = (   0.0476190   0.0476190   0.3809524), wk =   0.0004319
        k(  252) = (   0.0476190   0.0476190   0.4285714), wk =   0.0004319
        k(  253) = (   0.0476190   0.0476190   0.4761905), wk =   0.0004319
        k(  254) = (   0.0476190   0.0476190  -0.4761905), wk =   0.0004319
        k(  255) = (   0.0476190   0.0476190  -0.4285714), wk =   0.0004319
        k(  256) = (   0.0476190   0.0476190  -0.3809524), wk =   0.0004319
        k(  257) = (   0.0476190   0.0476190  -0.3333333), wk =   0.0004319
        k(  258) = (   0.0476190   0.0476190  -0.2857143), wk =   0.0004319
        k(  259) = (   0.0476190   0.0476190  -0.2380952), wk =   0.0004319
        k(  260) = (   0.0476190   0.0476190  -0.1904762), wk =   0.0004319
        k(  261) = (   0.0476190   0.0476190  -0.1428571), wk =   0.0004319
        k(  262) = (   0.0476190   0.0476190  -0.0952381), wk =   0.0004319
        k(  263) = (   0.0476190   0.0476190  -0.0476190), wk =   0.0004319
        k(  264) = (   0.0476190   0.0952381   0.0000000), wk =   0.0004319
        k(  265) = (   0.0476190   0.0952381   0.0476190), wk =   0.0004319
        k(  266) = (   0.0476190   0.0952381   0.0952381), wk =   0.0004319
        k(  267) = (   0.0476190   0.0952381   0.1428571), wk =   0.0004319
        k(  268) = (   0.0476190   0.0952381   0.1904762), wk =   0.0004319
        k(  269) = (   0.0476190   0.0952381   0.2380952), wk =   0.0004319
        k(  270) = (   0.0476190   0.0952381   0.2857143), wk =   0.0004319
        k(  271) = (   0.0476190   0.0952381   0.3333333), wk =   0.0004319
        k(  272) = (   0.0476190   0.0952381   0.3809524), wk =   0.0004319
        k(  273) = (   0.0476190   0.0952381   0.4285714), wk =   0.0004319
        k(  274) = (   0.0476190   0.0952381   0.4761905), wk =   0.0004319
        k(  275) = (   0.0476190   0.0952381  -0.4761905), wk =   0.0004319
        k(  276) = (   0.0476190   0.0952381  -0.4285714), wk =   0.0004319
        k(  277) = (   0.0476190   0.0952381  -0.3809524), wk =   0.0004319
        k(  278) = (   0.0476190   0.0952381  -0.3333333), wk =   0.0004319
        k(  279) = (   0.0476190   0.0952381  -0.2857143), wk =   0.0004319
        k(  280) = (   0.0476190   0.0952381  -0.2380952), wk =   0.0004319
        k(  281) = (   0.0476190   0.0952381  -0.1904762), wk =   0.0004319
        k(  282) = (   0.0476190   0.0952381  -0.1428571), wk =   0.0004319
        k(  283) = (   0.0476190   0.0952381  -0.0952381), wk =   0.0004319
        k(  284) = (   0.0476190   0.0952381  -0.0476190), wk =   0.0004319
        k(  285) = (   0.0476190   0.1428571   0.0000000), wk =   0.0004319
        k(  286) = (   0.0476190   0.1428571   0.0476190), wk =   0.0004319
        k(  287) = (   0.0476190   0.1428571   0.0952381), wk =   0.0004319
        k(  288) = (   0.0476190   0.1428571   0.1428571), wk =   0.0004319
        k(  289) = (   0.0476190   0.1428571   0.1904762), wk =   0.0004319
        k(  290) = (   0.0476190   0.1428571   0.2380952), wk =   0.0004319
        k(  291) = (   0.0476190   0.1428571   0.2857143), wk =   0.0004319
        k(  292) = (   0.0476190   0.1428571   0.3333333), wk =   0.0004319
        k(  293) = (   0.0476190   0.1428571   0.3809524), wk =   0.0004319
        k(  294) = (   0.0476190   0.1428571   0.4285714), wk =   0.0004319
        k(  295) = (   0.0476190   0.1428571   0.4761905), wk =   0.0004319
        k(  296) = (   0.0476190   0.1428571  -0.4761905), wk =   0.0004319
        k(  297) = (   0.0476190   0.1428571  -0.4285714), wk =   0.0004319
        k(  298) = (   0.0476190   0.1428571  -0.3809524), wk =   0.0004319
        k(  299) = (   0.0476190   0.1428571  -0.3333333), wk =   0.0004319
        k(  300) = (   0.0476190   0.1428571  -0.2857143), wk =   0.0004319
        k(  301) = (   0.0476190   0.1428571  -0.2380952), wk =   0.0004319
        k(  302) = (   0.0476190   0.1428571  -0.1904762), wk =   0.0004319
        k(  303) = (   0.0476190   0.1428571  -0.1428571), wk =   0.0004319
        k(  304) = (   0.0476190   0.1428571  -0.0952381), wk =   0.0004319
        k(  305) = (   0.0476190   0.1428571  -0.0476190), wk =   0.0004319
        k(  306) = (   0.0476190   0.1904762   0.0000000), wk =   0.0004319
        k(  307) = (   0.0476190   0.1904762   0.0476190), wk =   0.0004319
        k(  308) = (   0.0476190   0.1904762   0.0952381), wk =   0.0004319
        k(  309) = (   0.0476190   0.1904762   0.1428571), wk =   0.0004319
        k(  310) = (   0.0476190   0.1904762   0.1904762), wk =   0.0004319
        k(  311) = (   0.0476190   0.1904762   0.2380952), wk =   0.0004319
        k(  312) = (   0.0476190   0.1904762   0.2857143), wk =   0.0004319
        k(  313) = (   0.0476190   0.1904762   0.3333333), wk =   0.0004319
        k(  314) = (   0.0476190   0.1904762   0.3809524), wk =   0.0004319
        k(  315) = (   0.0476190   0.1904762   0.4285714), wk =   0.0004319
        k(  316) = (   0.0476190   0.1904762   0.4761905), wk =   0.0004319
        k(  317) = (   0.0476190   0.1904762  -0.4761905), wk =   0.0004319
        k(  318) = (   0.0476190   0.1904762  -0.4285714), wk =   0.0004319
        k(  319) = (   0.0476190   0.1904762  -0.3809524), wk =   0.0004319
        k(  320) = (   0.0476190   0.1904762  -0.3333333), wk =   0.0004319
        k(  321) = (   0.0476190   0.1904762  -0.2857143), wk =   0.0004319
        k(  322) = (   0.0476190   0.1904762  -0.2380952), wk =   0.0004319
        k(  323) = (   0.0476190   0.1904762  -0.1904762), wk =   0.0004319
        k(  324) = (   0.0476190   0.1904762  -0.1428571), wk =   0.0004319
        k(  325) = (   0.0476190   0.1904762  -0.0952381), wk =   0.0004319
        k(  326) = (   0.0476190   0.1904762  -0.0476190), wk =   0.0004319
        k(  327) = (   0.0476190   0.2380952   0.0000000), wk =   0.0004319
        k(  328) = (   0.0476190   0.2380952   0.0476190), wk =   0.0004319
        k(  329) = (   0.0476190   0.2380952   0.0952381), wk =   0.0004319
        k(  330) = (   0.0476190   0.2380952   0.1428571), wk =   0.0004319
        k(  331) = (   0.0476190   0.2380952   0.1904762), wk =   0.0004319
        k(  332) = (   0.0476190   0.2380952   0.2380952), wk =   0.0004319
        k(  333) = (   0.0476190   0.2380952   0.2857143), wk =   0.0004319
        k(  334) = (   0.0476190   0.2380952   0.3333333), wk =   0.0004319
        k(  335) = (   0.0476190   0.2380952   0.3809524), wk =   0.0004319
        k(  336) = (   0.0476190   0.2380952   0.4285714), wk =   0.0004319
        k(  337) = (   0.0476190   0.2380952   0.4761905), wk =   0.0004319
        k(  338) = (   0.0476190   0.2380952  -0.4761905), wk =   0.0004319
        k(  339) = (   0.0476190   0.2380952  -0.4285714), wk =   0.0004319
        k(  340) = (   0.0476190   0.2380952  -0.3809524), wk =   0.0004319
        k(  341) = (   0.0476190   0.2380952  -0.3333333), wk =   0.0004319
        k(  342) = (   0.0476190   0.2380952  -0.2857143), wk =   0.0004319
        k(  343) = (   0.0476190   0.2380952  -0.2380952), wk =   0.0004319
        k(  344) = (   0.0476190   0.2380952  -0.1904762), wk =   0.0004319
        k(  345) = (   0.0476190   0.2380952  -0.1428571), wk =   0.0004319
        k(  346) = (   0.0476190   0.2380952  -0.0952381), wk =   0.0004319
        k(  347) = (   0.0476190   0.2380952  -0.0476190), wk =   0.0004319
        k(  348) = (   0.0476190   0.2857143   0.0000000), wk =   0.0004319
        k(  349) = (   0.0476190   0.2857143   0.0476190), wk =   0.0004319
        k(  350) = (   0.0476190   0.2857143   0.0952381), wk =   0.0004319
        k(  351) = (   0.0476190   0.2857143   0.1428571), wk =   0.0004319
        k(  352) = (   0.0476190   0.2857143   0.1904762), wk =   0.0004319
        k(  353) = (   0.0476190   0.2857143   0.2380952), wk =   0.0004319
        k(  354) = (   0.0476190   0.2857143   0.2857143), wk =   0.0004319
        k(  355) = (   0.0476190   0.2857143   0.3333333), wk =   0.0004319
        k(  356) = (   0.0476190   0.2857143   0.3809524), wk =   0.0004319
        k(  357) = (   0.0476190   0.2857143   0.4285714), wk =   0.0004319
        k(  358) = (   0.0476190   0.2857143   0.4761905), wk =   0.0004319
        k(  359) = (   0.0476190   0.2857143  -0.4761905), wk =   0.0004319
        k(  360) = (   0.0476190   0.2857143  -0.4285714), wk =   0.0004319
        k(  361) = (   0.0476190   0.2857143  -0.3809524), wk =   0.0004319
        k(  362) = (   0.0476190   0.2857143  -0.3333333), wk =   0.0004319
        k(  363) = (   0.0476190   0.2857143  -0.2857143), wk =   0.0004319
        k(  364) = (   0.0476190   0.2857143  -0.2380952), wk =   0.0004319
        k(  365) = (   0.0476190   0.2857143  -0.1904762), wk =   0.0004319
        k(  366) = (   0.0476190   0.2857143  -0.1428571), wk =   0.0004319
        k(  367) = (   0.0476190   0.2857143  -0.0952381), wk =   0.0004319
        k(  368) = (   0.0476190   0.2857143  -0.0476190), wk =   0.0004319
        k(  369) = (   0.0476190   0.3333333   0.0000000), wk =   0.0004319
        k(  370) = (   0.0476190   0.3333333   0.0476190), wk =   0.0004319
        k(  371) = (   0.0476190   0.3333333   0.0952381), wk =   0.0004319
        k(  372) = (   0.0476190   0.3333333   0.1428571), wk =   0.0004319
        k(  373) = (   0.0476190   0.3333333   0.1904762), wk =   0.0004319
        k(  374) = (   0.0476190   0.3333333   0.2380952), wk =   0.0004319
        k(  375) = (   0.0476190   0.3333333   0.2857143), wk =   0.0004319
        k(  376) = (   0.0476190   0.3333333   0.3333333), wk =   0.0004319
        k(  377) = (   0.0476190   0.3333333   0.3809524), wk =   0.0004319
        k(  378) = (   0.0476190   0.3333333   0.4285714), wk =   0.0004319
        k(  379) = (   0.0476190   0.3333333   0.4761905), wk =   0.0004319
        k(  380) = (   0.0476190   0.3333333  -0.4761905), wk =   0.0004319
        k(  381) = (   0.0476190   0.3333333  -0.4285714), wk =   0.0004319
        k(  382) = (   0.0476190   0.3333333  -0.3809524), wk =   0.0004319
        k(  383) = (   0.0476190   0.3333333  -0.3333333), wk =   0.0004319
        k(  384) = (   0.0476190   0.3333333  -0.2857143), wk =   0.0004319
        k(  385) = (   0.0476190   0.3333333  -0.2380952), wk =   0.0004319
        k(  386) = (   0.0476190   0.3333333  -0.1904762), wk =   0.0004319
        k(  387) = (   0.0476190   0.3333333  -0.1428571), wk =   0.0004319
        k(  388) = (   0.0476190   0.3333333  -0.0952381), wk =   0.0004319
        k(  389) = (   0.0476190   0.3333333  -0.0476190), wk =   0.0004319
        k(  390) = (   0.0476190   0.3809524   0.0000000), wk =   0.0004319
        k(  391) = (   0.0476190   0.3809524   0.0476190), wk =   0.0004319
        k(  392) = (   0.0476190   0.3809524   0.0952381), wk =   0.0004319
        k(  393) = (   0.0476190   0.3809524   0.1428571), wk =   0.0004319
        k(  394) = (   0.0476190   0.3809524   0.1904762), wk =   0.0004319
        k(  395) = (   0.0476190   0.3809524   0.2380952), wk =   0.0004319
        k(  396) = (   0.0476190   0.3809524   0.2857143), wk =   0.0004319
        k(  397) = (   0.0476190   0.3809524   0.3333333), wk =   0.0004319
        k(  398) = (   0.0476190   0.3809524   0.3809524), wk =   0.0004319
        k(  399) = (   0.0476190   0.3809524   0.4285714), wk =   0.0004319
        k(  400) = (   0.0476190   0.3809524   0.4761905), wk =   0.0004319
        k(  401) = (   0.0476190   0.3809524  -0.4761905), wk =   0.0004319
        k(  402) = (   0.0476190   0.3809524  -0.4285714), wk =   0.0004319
        k(  403) = (   0.0476190   0.3809524  -0.3809524), wk =   0.0004319
        k(  404) = (   0.0476190   0.3809524  -0.3333333), wk =   0.0004319
        k(  405) = (   0.0476190   0.3809524  -0.2857143), wk =   0.0004319
        k(  406) = (   0.0476190   0.3809524  -0.2380952), wk =   0.0004319
        k(  407) = (   0.0476190   0.3809524  -0.1904762), wk =   0.0004319
        k(  408) = (   0.0476190   0.3809524  -0.1428571), wk =   0.0004319
        k(  409) = (   0.0476190   0.3809524  -0.0952381), wk =   0.0004319
        k(  410) = (   0.0476190   0.3809524  -0.0476190), wk =   0.0004319
        k(  411) = (   0.0476190   0.4285714   0.0000000), wk =   0.0004319
        k(  412) = (   0.0476190   0.4285714   0.0476190), wk =   0.0004319
        k(  413) = (   0.0476190   0.4285714   0.0952381), wk =   0.0004319
        k(  414) = (   0.0476190   0.4285714   0.1428571), wk =   0.0004319
        k(  415) = (   0.0476190   0.4285714   0.1904762), wk =   0.0004319
        k(  416) = (   0.0476190   0.4285714   0.2380952), wk =   0.0004319
        k(  417) = (   0.0476190   0.4285714   0.2857143), wk =   0.0004319
        k(  418) = (   0.0476190   0.4285714   0.3333333), wk =   0.0004319
        k(  419) = (   0.0476190   0.4285714   0.3809524), wk =   0.0004319
        k(  420) = (   0.0476190   0.4285714   0.4285714), wk =   0.0004319
        k(  421) = (   0.0476190   0.4285714   0.4761905), wk =   0.0004319
        k(  422) = (   0.0476190   0.4285714  -0.4761905), wk =   0.0004319
        k(  423) = (   0.0476190   0.4285714  -0.4285714), wk =   0.0004319
        k(  424) = (   0.0476190   0.4285714  -0.3809524), wk =   0.0004319
        k(  425) = (   0.0476190   0.4285714  -0.3333333), wk =   0.0004319
        k(  426) = (   0.0476190   0.4285714  -0.2857143), wk =   0.0004319
        k(  427) = (   0.0476190   0.4285714  -0.2380952), wk =   0.0004319
        k(  428) = (   0.0476190   0.4285714  -0.1904762), wk =   0.0004319
        k(  429) = (   0.0476190   0.4285714  -0.1428571), wk =   0.0004319
        k(  430) = (   0.0476190   0.4285714  -0.0952381), wk =   0.0004319
        k(  431) = (   0.0476190   0.4285714  -0.0476190), wk =   0.0004319
        k(  432) = (   0.0476190   0.4761905   0.0000000), wk =   0.0004319
        k(  433) = (   0.0476190   0.4761905   0.0476190), wk =   0.0004319
        k(  434) = (   0.0476190   0.4761905   0.0952381), wk =   0.0004319
        k(  435) = (   0.0476190   0.4761905   0.1428571), wk =   0.0004319
        k(  436) = (   0.0476190   0.4761905   0.1904762), wk =   0.0004319
        k(  437) = (   0.0476190   0.4761905   0.2380952), wk =   0.0004319
        k(  438) = (   0.0476190   0.4761905   0.2857143), wk =   0.0004319
        k(  439) = (   0.0476190   0.4761905   0.3333333), wk =   0.0004319
        k(  440) = (   0.0476190   0.4761905   0.3809524), wk =   0.0004319
        k(  441) = (   0.0476190   0.4761905   0.4285714), wk =   0.0004319
        k(  442) = (   0.0476190   0.4761905   0.4761905), wk =   0.0004319
        k(  443) = (   0.0476190   0.4761905  -0.4761905), wk =   0.0004319
        k(  444) = (   0.0476190   0.4761905  -0.4285714), wk =   0.0004319
        k(  445) = (   0.0476190   0.4761905  -0.3809524), wk =   0.0004319
        k(  446) = (   0.0476190   0.4761905  -0.3333333), wk =   0.0004319
        k(  447) = (   0.0476190   0.4761905  -0.2857143), wk =   0.0004319
        k(  448) = (   0.0476190   0.4761905  -0.2380952), wk =   0.0004319
        k(  449) = (   0.0476190   0.4761905  -0.1904762), wk =   0.0004319
        k(  450) = (   0.0476190   0.4761905  -0.1428571), wk =   0.0004319
        k(  451) = (   0.0476190   0.4761905  -0.0952381), wk =   0.0004319
        k(  452) = (   0.0476190   0.4761905  -0.0476190), wk =   0.0004319
        k(  453) = (   0.0476190  -0.4761905   0.0000000), wk =   0.0004319
        k(  454) = (   0.0476190  -0.4761905   0.0476190), wk =   0.0004319
        k(  455) = (   0.0476190  -0.4761905   0.0952381), wk =   0.0004319
        k(  456) = (   0.0476190  -0.4761905   0.1428571), wk =   0.0004319
        k(  457) = (   0.0476190  -0.4761905   0.1904762), wk =   0.0004319
        k(  458) = (   0.0476190  -0.4761905   0.2380952), wk =   0.0004319
        k(  459) = (   0.0476190  -0.4761905   0.2857143), wk =   0.0004319
        k(  460) = (   0.0476190  -0.4761905   0.3333333), wk =   0.0004319
        k(  461) = (   0.0476190  -0.4761905   0.3809524), wk =   0.0004319
        k(  462) = (   0.0476190  -0.4761905   0.4285714), wk =   0.0004319
        k(  463) = (   0.0476190  -0.4761905   0.4761905), wk =   0.0004319
        k(  464) = (   0.0476190  -0.4761905  -0.4761905), wk =   0.0004319
        k(  465) = (   0.0476190  -0.4761905  -0.4285714), wk =   0.0004319
        k(  466) = (   0.0476190  -0.4761905  -0.3809524), wk =   0.0004319
        k(  467) = (   0.0476190  -0.4761905  -0.3333333), wk =   0.0004319
        k(  468) = (   0.0476190  -0.4761905  -0.2857143), wk =   0.0004319
        k(  469) = (   0.0476190  -0.4761905  -0.2380952), wk =   0.0004319
        k(  470) = (   0.0476190  -0.4761905  -0.1904762), wk =   0.0004319
        k(  471) = (   0.0476190  -0.4761905  -0.1428571), wk =   0.0004319
        k(  472) = (   0.0476190  -0.4761905  -0.0952381), wk =   0.0004319
        k(  473) = (   0.0476190  -0.4761905  -0.0476190), wk =   0.0004319
        k(  474) = (   0.0476190  -0.4285714   0.0000000), wk =   0.0004319
        k(  475) = (   0.0476190  -0.4285714   0.0476190), wk =   0.0004319
        k(  476) = (   0.0476190  -0.4285714   0.0952381), wk =   0.0004319
        k(  477) = (   0.0476190  -0.4285714   0.1428571), wk =   0.0004319
        k(  478) = (   0.0476190  -0.4285714   0.1904762), wk =   0.0004319
        k(  479) = (   0.0476190  -0.4285714   0.2380952), wk =   0.0004319
        k(  480) = (   0.0476190  -0.4285714   0.2857143), wk =   0.0004319
        k(  481) = (   0.0476190  -0.4285714   0.3333333), wk =   0.0004319
        k(  482) = (   0.0476190  -0.4285714   0.3809524), wk =   0.0004319
        k(  483) = (   0.0476190  -0.4285714   0.4285714), wk =   0.0004319
        k(  484) = (   0.0476190  -0.4285714   0.4761905), wk =   0.0004319
        k(  485) = (   0.0476190  -0.4285714  -0.4761905), wk =   0.0004319
        k(  486) = (   0.0476190  -0.4285714  -0.4285714), wk =   0.0004319
        k(  487) = (   0.0476190  -0.4285714  -0.3809524), wk =   0.0004319
        k(  488) = (   0.0476190  -0.4285714  -0.3333333), wk =   0.0004319
        k(  489) = (   0.0476190  -0.4285714  -0.2857143), wk =   0.0004319
        k(  490) = (   0.0476190  -0.4285714  -0.2380952), wk =   0.0004319
        k(  491) = (   0.0476190  -0.4285714  -0.1904762), wk =   0.0004319
        k(  492) = (   0.0476190  -0.4285714  -0.1428571), wk =   0.0004319
        k(  493) = (   0.0476190  -0.4285714  -0.0952381), wk =   0.0004319
        k(  494) = (   0.0476190  -0.4285714  -0.0476190), wk =   0.0004319
        k(  495) = (   0.0476190  -0.3809524   0.0000000), wk =   0.0004319
        k(  496) = (   0.0476190  -0.3809524   0.0476190), wk =   0.0004319
        k(  497) = (   0.0476190  -0.3809524   0.0952381), wk =   0.0004319
        k(  498) = (   0.0476190  -0.3809524   0.1428571), wk =   0.0004319
        k(  499) = (   0.0476190  -0.3809524   0.1904762), wk =   0.0004319
        k(  500) = (   0.0476190  -0.3809524   0.2380952), wk =   0.0004319
        k(  501) = (   0.0476190  -0.3809524   0.2857143), wk =   0.0004319
        k(  502) = (   0.0476190  -0.3809524   0.3333333), wk =   0.0004319
        k(  503) = (   0.0476190  -0.3809524   0.3809524), wk =   0.0004319
        k(  504) = (   0.0476190  -0.3809524   0.4285714), wk =   0.0004319
        k(  505) = (   0.0476190  -0.3809524   0.4761905), wk =   0.0004319
        k(  506) = (   0.0476190  -0.3809524  -0.4761905), wk =   0.0004319
        k(  507) = (   0.0476190  -0.3809524  -0.4285714), wk =   0.0004319
        k(  508) = (   0.0476190  -0.3809524  -0.3809524), wk =   0.0004319
        k(  509) = (   0.0476190  -0.3809524  -0.3333333), wk =   0.0004319
        k(  510) = (   0.0476190  -0.3809524  -0.2857143), wk =   0.0004319
        k(  511) = (   0.0476190  -0.3809524  -0.2380952), wk =   0.0004319
        k(  512) = (   0.0476190  -0.3809524  -0.1904762), wk =   0.0004319
        k(  513) = (   0.0476190  -0.3809524  -0.1428571), wk =   0.0004319
        k(  514) = (   0.0476190  -0.3809524  -0.0952381), wk =   0.0004319
        k(  515) = (   0.0476190  -0.3809524  -0.0476190), wk =   0.0004319
        k(  516) = (   0.0476190  -0.3333333   0.0000000), wk =   0.0004319
        k(  517) = (   0.0476190  -0.3333333   0.0476190), wk =   0.0004319
        k(  518) = (   0.0476190  -0.3333333   0.0952381), wk =   0.0004319
        k(  519) = (   0.0476190  -0.3333333   0.1428571), wk =   0.0004319
        k(  520) = (   0.0476190  -0.3333333   0.1904762), wk =   0.0004319
        k(  521) = (   0.0476190  -0.3333333   0.2380952), wk =   0.0004319
        k(  522) = (   0.0476190  -0.3333333   0.2857143), wk =   0.0004319
        k(  523) = (   0.0476190  -0.3333333   0.3333333), wk =   0.0004319
        k(  524) = (   0.0476190  -0.3333333   0.3809524), wk =   0.0004319
        k(  525) = (   0.0476190  -0.3333333   0.4285714), wk =   0.0004319
        k(  526) = (   0.0476190  -0.3333333   0.4761905), wk =   0.0004319
        k(  527) = (   0.0476190  -0.3333333  -0.4761905), wk =   0.0004319
        k(  528) = (   0.0476190  -0.3333333  -0.4285714), wk =   0.0004319
        k(  529) = (   0.0476190  -0.3333333  -0.3809524), wk =   0.0004319
        k(  530) = (   0.0476190  -0.3333333  -0.3333333), wk =   0.0004319
        k(  531) = (   0.0476190  -0.3333333  -0.2857143), wk =   0.0004319
        k(  532) = (   0.0476190  -0.3333333  -0.2380952), wk =   0.0004319
        k(  533) = (   0.0476190  -0.3333333  -0.1904762), wk =   0.0004319
        k(  534) = (   0.0476190  -0.3333333  -0.1428571), wk =   0.0004319
        k(  535) = (   0.0476190  -0.3333333  -0.0952381), wk =   0.0004319
        k(  536) = (   0.0476190  -0.3333333  -0.0476190), wk =   0.0004319
        k(  537) = (   0.0476190  -0.2857143   0.0000000), wk =   0.0004319
        k(  538) = (   0.0476190  -0.2857143   0.0476190), wk =   0.0004319
        k(  539) = (   0.0476190  -0.2857143   0.0952381), wk =   0.0004319
        k(  540) = (   0.0476190  -0.2857143   0.1428571), wk =   0.0004319
        k(  541) = (   0.0476190  -0.2857143   0.1904762), wk =   0.0004319
        k(  542) = (   0.0476190  -0.2857143   0.2380952), wk =   0.0004319
        k(  543) = (   0.0476190  -0.2857143   0.2857143), wk =   0.0004319
        k(  544) = (   0.0476190  -0.2857143   0.3333333), wk =   0.0004319
        k(  545) = (   0.0476190  -0.2857143   0.3809524), wk =   0.0004319
        k(  546) = (   0.0476190  -0.2857143   0.4285714), wk =   0.0004319
        k(  547) = (   0.0476190  -0.2857143   0.4761905), wk =   0.0004319
        k(  548) = (   0.0476190  -0.2857143  -0.4761905), wk =   0.0004319
        k(  549) = (   0.0476190  -0.2857143  -0.4285714), wk =   0.0004319
        k(  550) = (   0.0476190  -0.2857143  -0.3809524), wk =   0.0004319
        k(  551) = (   0.0476190  -0.2857143  -0.3333333), wk =   0.0004319
        k(  552) = (   0.0476190  -0.2857143  -0.2857143), wk =   0.0004319
        k(  553) = (   0.0476190  -0.2857143  -0.2380952), wk =   0.0004319
        k(  554) = (   0.0476190  -0.2857143  -0.1904762), wk =   0.0004319
        k(  555) = (   0.0476190  -0.2857143  -0.1428571), wk =   0.0004319
        k(  556) = (   0.0476190  -0.2857143  -0.0952381), wk =   0.0004319
        k(  557) = (   0.0476190  -0.2857143  -0.0476190), wk =   0.0004319
        k(  558) = (   0.0476190  -0.2380952   0.0000000), wk =   0.0004319
        k(  559) = (   0.0476190  -0.2380952   0.0476190), wk =   0.0004319
        k(  560) = (   0.0476190  -0.2380952   0.0952381), wk =   0.0004319
        k(  561) = (   0.0476190  -0.2380952   0.1428571), wk =   0.0004319
        k(  562) = (   0.0476190  -0.2380952   0.1904762), wk =   0.0004319
        k(  563) = (   0.0476190  -0.2380952   0.2380952), wk =   0.0004319
        k(  564) = (   0.0476190  -0.2380952   0.2857143), wk =   0.0004319
        k(  565) = (   0.0476190  -0.2380952   0.3333333), wk =   0.0004319
        k(  566) = (   0.0476190  -0.2380952   0.3809524), wk =   0.0004319
        k(  567) = (   0.0476190  -0.2380952   0.4285714), wk =   0.0004319
        k(  568) = (   0.0476190  -0.2380952   0.4761905), wk =   0.0004319
        k(  569) = (   0.0476190  -0.2380952  -0.4761905), wk =   0.0004319
        k(  570) = (   0.0476190  -0.2380952  -0.4285714), wk =   0.0004319
        k(  571) = (   0.0476190  -0.2380952  -0.3809524), wk =   0.0004319
        k(  572) = (   0.0476190  -0.2380952  -0.3333333), wk =   0.0004319
        k(  573) = (   0.0476190  -0.2380952  -0.2857143), wk =   0.0004319
        k(  574) = (   0.0476190  -0.2380952  -0.2380952), wk =   0.0004319
        k(  575) = (   0.0476190  -0.2380952  -0.1904762), wk =   0.0004319
        k(  576) = (   0.0476190  -0.2380952  -0.1428571), wk =   0.0004319
        k(  577) = (   0.0476190  -0.2380952  -0.0952381), wk =   0.0004319
        k(  578) = (   0.0476190  -0.2380952  -0.0476190), wk =   0.0004319
        k(  579) = (   0.0476190  -0.1904762   0.0000000), wk =   0.0004319
        k(  580) = (   0.0476190  -0.1904762   0.0476190), wk =   0.0004319
        k(  581) = (   0.0476190  -0.1904762   0.0952381), wk =   0.0004319
        k(  582) = (   0.0476190  -0.1904762   0.1428571), wk =   0.0004319
        k(  583) = (   0.0476190  -0.1904762   0.1904762), wk =   0.0004319
        k(  584) = (   0.0476190  -0.1904762   0.2380952), wk =   0.0004319
        k(  585) = (   0.0476190  -0.1904762   0.2857143), wk =   0.0004319
        k(  586) = (   0.0476190  -0.1904762   0.3333333), wk =   0.0004319
        k(  587) = (   0.0476190  -0.1904762   0.3809524), wk =   0.0004319
        k(  588) = (   0.0476190  -0.1904762   0.4285714), wk =   0.0004319
        k(  589) = (   0.0476190  -0.1904762   0.4761905), wk =   0.0004319
        k(  590) = (   0.0476190  -0.1904762  -0.4761905), wk =   0.0004319
        k(  591) = (   0.0476190  -0.1904762  -0.4285714), wk =   0.0004319
        k(  592) = (   0.0476190  -0.1904762  -0.3809524), wk =   0.0004319
        k(  593) = (   0.0476190  -0.1904762  -0.3333333), wk =   0.0004319
        k(  594) = (   0.0476190  -0.1904762  -0.2857143), wk =   0.0004319
        k(  595) = (   0.0476190  -0.1904762  -0.2380952), wk =   0.0004319
        k(  596) = (   0.0476190  -0.1904762  -0.1904762), wk =   0.0004319
        k(  597) = (   0.0476190  -0.1904762  -0.1428571), wk =   0.0004319
        k(  598) = (   0.0476190  -0.1904762  -0.0952381), wk =   0.0004319
        k(  599) = (   0.0476190  -0.1904762  -0.0476190), wk =   0.0004319
        k(  600) = (   0.0476190  -0.1428571   0.0000000), wk =   0.0004319
        k(  601) = (   0.0476190  -0.1428571   0.0476190), wk =   0.0004319
        k(  602) = (   0.0476190  -0.1428571   0.0952381), wk =   0.0004319
        k(  603) = (   0.0476190  -0.1428571   0.1428571), wk =   0.0004319
        k(  604) = (   0.0476190  -0.1428571   0.1904762), wk =   0.0004319
        k(  605) = (   0.0476190  -0.1428571   0.2380952), wk =   0.0004319
        k(  606) = (   0.0476190  -0.1428571   0.2857143), wk =   0.0004319
        k(  607) = (   0.0476190  -0.1428571   0.3333333), wk =   0.0004319
        k(  608) = (   0.0476190  -0.1428571   0.3809524), wk =   0.0004319
        k(  609) = (   0.0476190  -0.1428571   0.4285714), wk =   0.0004319
        k(  610) = (   0.0476190  -0.1428571   0.4761905), wk =   0.0004319
        k(  611) = (   0.0476190  -0.1428571  -0.4761905), wk =   0.0004319
        k(  612) = (   0.0476190  -0.1428571  -0.4285714), wk =   0.0004319
        k(  613) = (   0.0476190  -0.1428571  -0.3809524), wk =   0.0004319
        k(  614) = (   0.0476190  -0.1428571  -0.3333333), wk =   0.0004319
        k(  615) = (   0.0476190  -0.1428571  -0.2857143), wk =   0.0004319
        k(  616) = (   0.0476190  -0.1428571  -0.2380952), wk =   0.0004319
        k(  617) = (   0.0476190  -0.1428571  -0.1904762), wk =   0.0004319
        k(  618) = (   0.0476190  -0.1428571  -0.1428571), wk =   0.0004319
        k(  619) = (   0.0476190  -0.1428571  -0.0952381), wk =   0.0004319
        k(  620) = (   0.0476190  -0.1428571  -0.0476190), wk =   0.0004319
        k(  621) = (   0.0476190  -0.0952381   0.0000000), wk =   0.0004319
        k(  622) = (   0.0476190  -0.0952381   0.0476190), wk =   0.0004319
        k(  623) = (   0.0476190  -0.0952381   0.0952381), wk =   0.0004319
        k(  624) = (   0.0476190  -0.0952381   0.1428571), wk =   0.0004319
        k(  625) = (   0.0476190  -0.0952381   0.1904762), wk =   0.0004319
        k(  626) = (   0.0476190  -0.0952381   0.2380952), wk =   0.0004319
        k(  627) = (   0.0476190  -0.0952381   0.2857143), wk =   0.0004319
        k(  628) = (   0.0476190  -0.0952381   0.3333333), wk =   0.0004319
        k(  629) = (   0.0476190  -0.0952381   0.3809524), wk =   0.0004319
        k(  630) = (   0.0476190  -0.0952381   0.4285714), wk =   0.0004319
        k(  631) = (   0.0476190  -0.0952381   0.4761905), wk =   0.0004319
        k(  632) = (   0.0476190  -0.0952381  -0.4761905), wk =   0.0004319
        k(  633) = (   0.0476190  -0.0952381  -0.4285714), wk =   0.0004319
        k(  634) = (   0.0476190  -0.0952381  -0.3809524), wk =   0.0004319
        k(  635) = (   0.0476190  -0.0952381  -0.3333333), wk =   0.0004319
        k(  636) = (   0.0476190  -0.0952381  -0.2857143), wk =   0.0004319
        k(  637) = (   0.0476190  -0.0952381  -0.2380952), wk =   0.0004319
        k(  638) = (   0.0476190  -0.0952381  -0.1904762), wk =   0.0004319
        k(  639) = (   0.0476190  -0.0952381  -0.1428571), wk =   0.0004319
        k(  640) = (   0.0476190  -0.0952381  -0.0952381), wk =   0.0004319
        k(  641) = (   0.0476190  -0.0952381  -0.0476190), wk =   0.0004319
        k(  642) = (   0.0476190  -0.0476190   0.0000000), wk =   0.0004319
        k(  643) = (   0.0476190  -0.0476190   0.0476190), wk =   0.0004319
        k(  644) = (   0.0476190  -0.0476190   0.0952381), wk =   0.0004319
        k(  645) = (   0.0476190  -0.0476190   0.1428571), wk =   0.0004319
        k(  646) = (   0.0476190  -0.0476190   0.1904762), wk =   0.0004319
        k(  647) = (   0.0476190  -0.0476190   0.2380952), wk =   0.0004319
        k(  648) = (   0.0476190  -0.0476190   0.2857143), wk =   0.0004319
        k(  649) = (   0.0476190  -0.0476190   0.3333333), wk =   0.0004319
        k(  650) = (   0.0476190  -0.0476190   0.3809524), wk =   0.0004319
        k(  651) = (   0.0476190  -0.0476190   0.4285714), wk =   0.0004319
        k(  652) = (   0.0476190  -0.0476190   0.4761905), wk =   0.0004319
        k(  653) = (   0.0476190  -0.0476190  -0.4761905), wk =   0.0004319
        k(  654) = (   0.0476190  -0.0476190  -0.4285714), wk =   0.0004319
        k(  655) = (   0.0476190  -0.0476190  -0.3809524), wk =   0.0004319
        k(  656) = (   0.0476190  -0.0476190  -0.3333333), wk =   0.0004319
        k(  657) = (   0.0476190  -0.0476190  -0.2857143), wk =   0.0004319
        k(  658) = (   0.0476190  -0.0476190  -0.2380952), wk =   0.0004319
        k(  659) = (   0.0476190  -0.0476190  -0.1904762), wk =   0.0004319
        k(  660) = (   0.0476190  -0.0476190  -0.1428571), wk =   0.0004319
        k(  661) = (   0.0476190  -0.0476190  -0.0952381), wk =   0.0004319
        k(  662) = (   0.0476190  -0.0476190  -0.0476190), wk =   0.0004319
        k(  663) = (   0.0952381   0.0000000   0.0000000), wk =   0.0004319
        k(  664) = (   0.0952381   0.0000000   0.0476190), wk =   0.0004319
        k(  665) = (   0.0952381   0.0000000   0.0952381), wk =   0.0004319
        k(  666) = (   0.0952381   0.0000000   0.1428571), wk =   0.0004319
        k(  667) = (   0.0952381   0.0000000   0.1904762), wk =   0.0004319
        k(  668) = (   0.0952381   0.0000000   0.2380952), wk =   0.0004319
        k(  669) = (   0.0952381   0.0000000   0.2857143), wk =   0.0004319
        k(  670) = (   0.0952381   0.0000000   0.3333333), wk =   0.0004319
        k(  671) = (   0.0952381   0.0000000   0.3809524), wk =   0.0004319
        k(  672) = (   0.0952381   0.0000000   0.4285714), wk =   0.0004319
        k(  673) = (   0.0952381   0.0000000   0.4761905), wk =   0.0004319
        k(  674) = (   0.0952381   0.0000000  -0.4761905), wk =   0.0004319
        k(  675) = (   0.0952381   0.0000000  -0.4285714), wk =   0.0004319
        k(  676) = (   0.0952381   0.0000000  -0.3809524), wk =   0.0004319
        k(  677) = (   0.0952381   0.0000000  -0.3333333), wk =   0.0004319
        k(  678) = (   0.0952381   0.0000000  -0.2857143), wk =   0.0004319
        k(  679) = (   0.0952381   0.0000000  -0.2380952), wk =   0.0004319
        k(  680) = (   0.0952381   0.0000000  -0.1904762), wk =   0.0004319
        k(  681) = (   0.0952381   0.0000000  -0.1428571), wk =   0.0004319
        k(  682) = (   0.0952381   0.0000000  -0.0952381), wk =   0.0004319
        k(  683) = (   0.0952381   0.0000000  -0.0476190), wk =   0.0004319
        k(  684) = (   0.0952381   0.0476190   0.0000000), wk =   0.0004319
        k(  685) = (   0.0952381   0.0476190   0.0476190), wk =   0.0004319
        k(  686) = (   0.0952381   0.0476190   0.0952381), wk =   0.0004319
        k(  687) = (   0.0952381   0.0476190   0.1428571), wk =   0.0004319
        k(  688) = (   0.0952381   0.0476190   0.1904762), wk =   0.0004319
        k(  689) = (   0.0952381   0.0476190   0.2380952), wk =   0.0004319
        k(  690) = (   0.0952381   0.0476190   0.2857143), wk =   0.0004319
        k(  691) = (   0.0952381   0.0476190   0.3333333), wk =   0.0004319
        k(  692) = (   0.0952381   0.0476190   0.3809524), wk =   0.0004319
        k(  693) = (   0.0952381   0.0476190   0.4285714), wk =   0.0004319
        k(  694) = (   0.0952381   0.0476190   0.4761905), wk =   0.0004319
        k(  695) = (   0.0952381   0.0476190  -0.4761905), wk =   0.0004319
        k(  696) = (   0.0952381   0.0476190  -0.4285714), wk =   0.0004319
        k(  697) = (   0.0952381   0.0476190  -0.3809524), wk =   0.0004319
        k(  698) = (   0.0952381   0.0476190  -0.3333333), wk =   0.0004319
        k(  699) = (   0.0952381   0.0476190  -0.2857143), wk =   0.0004319
        k(  700) = (   0.0952381   0.0476190  -0.2380952), wk =   0.0004319
        k(  701) = (   0.0952381   0.0476190  -0.1904762), wk =   0.0004319
        k(  702) = (   0.0952381   0.0476190  -0.1428571), wk =   0.0004319
        k(  703) = (   0.0952381   0.0476190  -0.0952381), wk =   0.0004319
        k(  704) = (   0.0952381   0.0476190  -0.0476190), wk =   0.0004319
        k(  705) = (   0.0952381   0.0952381   0.0000000), wk =   0.0004319
        k(  706) = (   0.0952381   0.0952381   0.0476190), wk =   0.0004319
        k(  707) = (   0.0952381   0.0952381   0.0952381), wk =   0.0004319
        k(  708) = (   0.0952381   0.0952381   0.1428571), wk =   0.0004319
        k(  709) = (   0.0952381   0.0952381   0.1904762), wk =   0.0004319
        k(  710) = (   0.0952381   0.0952381   0.2380952), wk =   0.0004319
        k(  711) = (   0.0952381   0.0952381   0.2857143), wk =   0.0004319
        k(  712) = (   0.0952381   0.0952381   0.3333333), wk =   0.0004319
        k(  713) = (   0.0952381   0.0952381   0.3809524), wk =   0.0004319
        k(  714) = (   0.0952381   0.0952381   0.4285714), wk =   0.0004319
        k(  715) = (   0.0952381   0.0952381   0.4761905), wk =   0.0004319
        k(  716) = (   0.0952381   0.0952381  -0.4761905), wk =   0.0004319
        k(  717) = (   0.0952381   0.0952381  -0.4285714), wk =   0.0004319
        k(  718) = (   0.0952381   0.0952381  -0.3809524), wk =   0.0004319
        k(  719) = (   0.0952381   0.0952381  -0.3333333), wk =   0.0004319
        k(  720) = (   0.0952381   0.0952381  -0.2857143), wk =   0.0004319
        k(  721) = (   0.0952381   0.0952381  -0.2380952), wk =   0.0004319
        k(  722) = (   0.0952381   0.0952381  -0.1904762), wk =   0.0004319
        k(  723) = (   0.0952381   0.0952381  -0.1428571), wk =   0.0004319
        k(  724) = (   0.0952381   0.0952381  -0.0952381), wk =   0.0004319
        k(  725) = (   0.0952381   0.0952381  -0.0476190), wk =   0.0004319
        k(  726) = (   0.0952381   0.1428571   0.0000000), wk =   0.0004319
        k(  727) = (   0.0952381   0.1428571   0.0476190), wk =   0.0004319
        k(  728) = (   0.0952381   0.1428571   0.0952381), wk =   0.0004319
        k(  729) = (   0.0952381   0.1428571   0.1428571), wk =   0.0004319
        k(  730) = (   0.0952381   0.1428571   0.1904762), wk =   0.0004319
        k(  731) = (   0.0952381   0.1428571   0.2380952), wk =   0.0004319
        k(  732) = (   0.0952381   0.1428571   0.2857143), wk =   0.0004319
        k(  733) = (   0.0952381   0.1428571   0.3333333), wk =   0.0004319
        k(  734) = (   0.0952381   0.1428571   0.3809524), wk =   0.0004319
        k(  735) = (   0.0952381   0.1428571   0.4285714), wk =   0.0004319
        k(  736) = (   0.0952381   0.1428571   0.4761905), wk =   0.0004319
        k(  737) = (   0.0952381   0.1428571  -0.4761905), wk =   0.0004319
        k(  738) = (   0.0952381   0.1428571  -0.4285714), wk =   0.0004319
        k(  739) = (   0.0952381   0.1428571  -0.3809524), wk =   0.0004319
        k(  740) = (   0.0952381   0.1428571  -0.3333333), wk =   0.0004319
        k(  741) = (   0.0952381   0.1428571  -0.2857143), wk =   0.0004319
        k(  742) = (   0.0952381   0.1428571  -0.2380952), wk =   0.0004319
        k(  743) = (   0.0952381   0.1428571  -0.1904762), wk =   0.0004319
        k(  744) = (   0.0952381   0.1428571  -0.1428571), wk =   0.0004319
        k(  745) = (   0.0952381   0.1428571  -0.0952381), wk =   0.0004319
        k(  746) = (   0.0952381   0.1428571  -0.0476190), wk =   0.0004319
        k(  747) = (   0.0952381   0.1904762   0.0000000), wk =   0.0004319
        k(  748) = (   0.0952381   0.1904762   0.0476190), wk =   0.0004319
        k(  749) = (   0.0952381   0.1904762   0.0952381), wk =   0.0004319
        k(  750) = (   0.0952381   0.1904762   0.1428571), wk =   0.0004319
        k(  751) = (   0.0952381   0.1904762   0.1904762), wk =   0.0004319
        k(  752) = (   0.0952381   0.1904762   0.2380952), wk =   0.0004319
        k(  753) = (   0.0952381   0.1904762   0.2857143), wk =   0.0004319
        k(  754) = (   0.0952381   0.1904762   0.3333333), wk =   0.0004319
        k(  755) = (   0.0952381   0.1904762   0.3809524), wk =   0.0004319
        k(  756) = (   0.0952381   0.1904762   0.4285714), wk =   0.0004319
        k(  757) = (   0.0952381   0.1904762   0.4761905), wk =   0.0004319
        k(  758) = (   0.0952381   0.1904762  -0.4761905), wk =   0.0004319
        k(  759) = (   0.0952381   0.1904762  -0.4285714), wk =   0.0004319
        k(  760) = (   0.0952381   0.1904762  -0.3809524), wk =   0.0004319
        k(  761) = (   0.0952381   0.1904762  -0.3333333), wk =   0.0004319
        k(  762) = (   0.0952381   0.1904762  -0.2857143), wk =   0.0004319
        k(  763) = (   0.0952381   0.1904762  -0.2380952), wk =   0.0004319
        k(  764) = (   0.0952381   0.1904762  -0.1904762), wk =   0.0004319
        k(  765) = (   0.0952381   0.1904762  -0.1428571), wk =   0.0004319
        k(  766) = (   0.0952381   0.1904762  -0.0952381), wk =   0.0004319
        k(  767) = (   0.0952381   0.1904762  -0.0476190), wk =   0.0004319
        k(  768) = (   0.0952381   0.2380952   0.0000000), wk =   0.0004319
        k(  769) = (   0.0952381   0.2380952   0.0476190), wk =   0.0004319
        k(  770) = (   0.0952381   0.2380952   0.0952381), wk =   0.0004319
        k(  771) = (   0.0952381   0.2380952   0.1428571), wk =   0.0004319
        k(  772) = (   0.0952381   0.2380952   0.1904762), wk =   0.0004319
        k(  773) = (   0.0952381   0.2380952   0.2380952), wk =   0.0004319
        k(  774) = (   0.0952381   0.2380952   0.2857143), wk =   0.0004319
        k(  775) = (   0.0952381   0.2380952   0.3333333), wk =   0.0004319
        k(  776) = (   0.0952381   0.2380952   0.3809524), wk =   0.0004319
        k(  777) = (   0.0952381   0.2380952   0.4285714), wk =   0.0004319
        k(  778) = (   0.0952381   0.2380952   0.4761905), wk =   0.0004319
        k(  779) = (   0.0952381   0.2380952  -0.4761905), wk =   0.0004319
        k(  780) = (   0.0952381   0.2380952  -0.4285714), wk =   0.0004319
        k(  781) = (   0.0952381   0.2380952  -0.3809524), wk =   0.0004319
        k(  782) = (   0.0952381   0.2380952  -0.3333333), wk =   0.0004319
        k(  783) = (   0.0952381   0.2380952  -0.2857143), wk =   0.0004319
        k(  784) = (   0.0952381   0.2380952  -0.2380952), wk =   0.0004319
        k(  785) = (   0.0952381   0.2380952  -0.1904762), wk =   0.0004319
        k(  786) = (   0.0952381   0.2380952  -0.1428571), wk =   0.0004319
        k(  787) = (   0.0952381   0.2380952  -0.0952381), wk =   0.0004319
        k(  788) = (   0.0952381   0.2380952  -0.0476190), wk =   0.0004319
        k(  789) = (   0.0952381   0.2857143   0.0000000), wk =   0.0004319
        k(  790) = (   0.0952381   0.2857143   0.0476190), wk =   0.0004319
        k(  791) = (   0.0952381   0.2857143   0.0952381), wk =   0.0004319
        k(  792) = (   0.0952381   0.2857143   0.1428571), wk =   0.0004319
        k(  793) = (   0.0952381   0.2857143   0.1904762), wk =   0.0004319
        k(  794) = (   0.0952381   0.2857143   0.2380952), wk =   0.0004319
        k(  795) = (   0.0952381   0.2857143   0.2857143), wk =   0.0004319
        k(  796) = (   0.0952381   0.2857143   0.3333333), wk =   0.0004319
        k(  797) = (   0.0952381   0.2857143   0.3809524), wk =   0.0004319
        k(  798) = (   0.0952381   0.2857143   0.4285714), wk =   0.0004319
        k(  799) = (   0.0952381   0.2857143   0.4761905), wk =   0.0004319
        k(  800) = (   0.0952381   0.2857143  -0.4761905), wk =   0.0004319
        k(  801) = (   0.0952381   0.2857143  -0.4285714), wk =   0.0004319
        k(  802) = (   0.0952381   0.2857143  -0.3809524), wk =   0.0004319
        k(  803) = (   0.0952381   0.2857143  -0.3333333), wk =   0.0004319
        k(  804) = (   0.0952381   0.2857143  -0.2857143), wk =   0.0004319
        k(  805) = (   0.0952381   0.2857143  -0.2380952), wk =   0.0004319
        k(  806) = (   0.0952381   0.2857143  -0.1904762), wk =   0.0004319
        k(  807) = (   0.0952381   0.2857143  -0.1428571), wk =   0.0004319
        k(  808) = (   0.0952381   0.2857143  -0.0952381), wk =   0.0004319
        k(  809) = (   0.0952381   0.2857143  -0.0476190), wk =   0.0004319
        k(  810) = (   0.0952381   0.3333333   0.0000000), wk =   0.0004319
        k(  811) = (   0.0952381   0.3333333   0.0476190), wk =   0.0004319
        k(  812) = (   0.0952381   0.3333333   0.0952381), wk =   0.0004319
        k(  813) = (   0.0952381   0.3333333   0.1428571), wk =   0.0004319
        k(  814) = (   0.0952381   0.3333333   0.1904762), wk =   0.0004319
        k(  815) = (   0.0952381   0.3333333   0.2380952), wk =   0.0004319
        k(  816) = (   0.0952381   0.3333333   0.2857143), wk =   0.0004319
        k(  817) = (   0.0952381   0.3333333   0.3333333), wk =   0.0004319
        k(  818) = (   0.0952381   0.3333333   0.3809524), wk =   0.0004319
        k(  819) = (   0.0952381   0.3333333   0.4285714), wk =   0.0004319
        k(  820) = (   0.0952381   0.3333333   0.4761905), wk =   0.0004319
        k(  821) = (   0.0952381   0.3333333  -0.4761905), wk =   0.0004319
        k(  822) = (   0.0952381   0.3333333  -0.4285714), wk =   0.0004319
        k(  823) = (   0.0952381   0.3333333  -0.3809524), wk =   0.0004319
        k(  824) = (   0.0952381   0.3333333  -0.3333333), wk =   0.0004319
        k(  825) = (   0.0952381   0.3333333  -0.2857143), wk =   0.0004319
        k(  826) = (   0.0952381   0.3333333  -0.2380952), wk =   0.0004319
        k(  827) = (   0.0952381   0.3333333  -0.1904762), wk =   0.0004319
        k(  828) = (   0.0952381   0.3333333  -0.1428571), wk =   0.0004319
        k(  829) = (   0.0952381   0.3333333  -0.0952381), wk =   0.0004319
        k(  830) = (   0.0952381   0.3333333  -0.0476190), wk =   0.0004319
        k(  831) = (   0.0952381   0.3809524   0.0000000), wk =   0.0004319
        k(  832) = (   0.0952381   0.3809524   0.0476190), wk =   0.0004319
        k(  833) = (   0.0952381   0.3809524   0.0952381), wk =   0.0004319
        k(  834) = (   0.0952381   0.3809524   0.1428571), wk =   0.0004319
        k(  835) = (   0.0952381   0.3809524   0.1904762), wk =   0.0004319
        k(  836) = (   0.0952381   0.3809524   0.2380952), wk =   0.0004319
        k(  837) = (   0.0952381   0.3809524   0.2857143), wk =   0.0004319
        k(  838) = (   0.0952381   0.3809524   0.3333333), wk =   0.0004319
        k(  839) = (   0.0952381   0.3809524   0.3809524), wk =   0.0004319
        k(  840) = (   0.0952381   0.3809524   0.4285714), wk =   0.0004319
        k(  841) = (   0.0952381   0.3809524   0.4761905), wk =   0.0004319
        k(  842) = (   0.0952381   0.3809524  -0.4761905), wk =   0.0004319
        k(  843) = (   0.0952381   0.3809524  -0.4285714), wk =   0.0004319
        k(  844) = (   0.0952381   0.3809524  -0.3809524), wk =   0.0004319
        k(  845) = (   0.0952381   0.3809524  -0.3333333), wk =   0.0004319
        k(  846) = (   0.0952381   0.3809524  -0.2857143), wk =   0.0004319
        k(  847) = (   0.0952381   0.3809524  -0.2380952), wk =   0.0004319
        k(  848) = (   0.0952381   0.3809524  -0.1904762), wk =   0.0004319
        k(  849) = (   0.0952381   0.3809524  -0.1428571), wk =   0.0004319
        k(  850) = (   0.0952381   0.3809524  -0.0952381), wk =   0.0004319
        k(  851) = (   0.0952381   0.3809524  -0.0476190), wk =   0.0004319
        k(  852) = (   0.0952381   0.4285714   0.0000000), wk =   0.0004319
        k(  853) = (   0.0952381   0.4285714   0.0476190), wk =   0.0004319
        k(  854) = (   0.0952381   0.4285714   0.0952381), wk =   0.0004319
        k(  855) = (   0.0952381   0.4285714   0.1428571), wk =   0.0004319
        k(  856) = (   0.0952381   0.4285714   0.1904762), wk =   0.0004319
        k(  857) = (   0.0952381   0.4285714   0.2380952), wk =   0.0004319
        k(  858) = (   0.0952381   0.4285714   0.2857143), wk =   0.0004319
        k(  859) = (   0.0952381   0.4285714   0.3333333), wk =   0.0004319
        k(  860) = (   0.0952381   0.4285714   0.3809524), wk =   0.0004319
        k(  861) = (   0.0952381   0.4285714   0.4285714), wk =   0.0004319
        k(  862) = (   0.0952381   0.4285714   0.4761905), wk =   0.0004319
        k(  863) = (   0.0952381   0.4285714  -0.4761905), wk =   0.0004319
        k(  864) = (   0.0952381   0.4285714  -0.4285714), wk =   0.0004319
        k(  865) = (   0.0952381   0.4285714  -0.3809524), wk =   0.0004319
        k(  866) = (   0.0952381   0.4285714  -0.3333333), wk =   0.0004319
        k(  867) = (   0.0952381   0.4285714  -0.2857143), wk =   0.0004319
        k(  868) = (   0.0952381   0.4285714  -0.2380952), wk =   0.0004319
        k(  869) = (   0.0952381   0.4285714  -0.1904762), wk =   0.0004319
        k(  870) = (   0.0952381   0.4285714  -0.1428571), wk =   0.0004319
        k(  871) = (   0.0952381   0.4285714  -0.0952381), wk =   0.0004319
        k(  872) = (   0.0952381   0.4285714  -0.0476190), wk =   0.0004319
        k(  873) = (   0.0952381   0.4761905   0.0000000), wk =   0.0004319
        k(  874) = (   0.0952381   0.4761905   0.0476190), wk =   0.0004319
        k(  875) = (   0.0952381   0.4761905   0.0952381), wk =   0.0004319
        k(  876) = (   0.0952381   0.4761905   0.1428571), wk =   0.0004319
        k(  877) = (   0.0952381   0.4761905   0.1904762), wk =   0.0004319
        k(  878) = (   0.0952381   0.4761905   0.2380952), wk =   0.0004319
        k(  879) = (   0.0952381   0.4761905   0.2857143), wk =   0.0004319
        k(  880) = (   0.0952381   0.4761905   0.3333333), wk =   0.0004319
        k(  881) = (   0.0952381   0.4761905   0.3809524), wk =   0.0004319
        k(  882) = (   0.0952381   0.4761905   0.4285714), wk =   0.0004319
        k(  883) = (   0.0952381   0.4761905   0.4761905), wk =   0.0004319
        k(  884) = (   0.0952381   0.4761905  -0.4761905), wk =   0.0004319
        k(  885) = (   0.0952381   0.4761905  -0.4285714), wk =   0.0004319
        k(  886) = (   0.0952381   0.4761905  -0.3809524), wk =   0.0004319
        k(  887) = (   0.0952381   0.4761905  -0.3333333), wk =   0.0004319
        k(  888) = (   0.0952381   0.4761905  -0.2857143), wk =   0.0004319
        k(  889) = (   0.0952381   0.4761905  -0.2380952), wk =   0.0004319
        k(  890) = (   0.0952381   0.4761905  -0.1904762), wk =   0.0004319
        k(  891) = (   0.0952381   0.4761905  -0.1428571), wk =   0.0004319
        k(  892) = (   0.0952381   0.4761905  -0.0952381), wk =   0.0004319
        k(  893) = (   0.0952381   0.4761905  -0.0476190), wk =   0.0004319
        k(  894) = (   0.0952381  -0.4761905   0.0000000), wk =   0.0004319
        k(  895) = (   0.0952381  -0.4761905   0.0476190), wk =   0.0004319
        k(  896) = (   0.0952381  -0.4761905   0.0952381), wk =   0.0004319
        k(  897) = (   0.0952381  -0.4761905   0.1428571), wk =   0.0004319
        k(  898) = (   0.0952381  -0.4761905   0.1904762), wk =   0.0004319
        k(  899) = (   0.0952381  -0.4761905   0.2380952), wk =   0.0004319
        k(  900) = (   0.0952381  -0.4761905   0.2857143), wk =   0.0004319
        k(  901) = (   0.0952381  -0.4761905   0.3333333), wk =   0.0004319
        k(  902) = (   0.0952381  -0.4761905   0.3809524), wk =   0.0004319
        k(  903) = (   0.0952381  -0.4761905   0.4285714), wk =   0.0004319
        k(  904) = (   0.0952381  -0.4761905   0.4761905), wk =   0.0004319
        k(  905) = (   0.0952381  -0.4761905  -0.4761905), wk =   0.0004319
        k(  906) = (   0.0952381  -0.4761905  -0.4285714), wk =   0.0004319
        k(  907) = (   0.0952381  -0.4761905  -0.3809524), wk =   0.0004319
        k(  908) = (   0.0952381  -0.4761905  -0.3333333), wk =   0.0004319
        k(  909) = (   0.0952381  -0.4761905  -0.2857143), wk =   0.0004319
        k(  910) = (   0.0952381  -0.4761905  -0.2380952), wk =   0.0004319
        k(  911) = (   0.0952381  -0.4761905  -0.1904762), wk =   0.0004319
        k(  912) = (   0.0952381  -0.4761905  -0.1428571), wk =   0.0004319
        k(  913) = (   0.0952381  -0.4761905  -0.0952381), wk =   0.0004319
        k(  914) = (   0.0952381  -0.4761905  -0.0476190), wk =   0.0004319
        k(  915) = (   0.0952381  -0.4285714   0.0000000), wk =   0.0004319
        k(  916) = (   0.0952381  -0.4285714   0.0476190), wk =   0.0004319
        k(  917) = (   0.0952381  -0.4285714   0.0952381), wk =   0.0004319
        k(  918) = (   0.0952381  -0.4285714   0.1428571), wk =   0.0004319
        k(  919) = (   0.0952381  -0.4285714   0.1904762), wk =   0.0004319
        k(  920) = (   0.0952381  -0.4285714   0.2380952), wk =   0.0004319
        k(  921) = (   0.0952381  -0.4285714   0.2857143), wk =   0.0004319
        k(  922) = (   0.0952381  -0.4285714   0.3333333), wk =   0.0004319
        k(  923) = (   0.0952381  -0.4285714   0.3809524), wk =   0.0004319
        k(  924) = (   0.0952381  -0.4285714   0.4285714), wk =   0.0004319
        k(  925) = (   0.0952381  -0.4285714   0.4761905), wk =   0.0004319
        k(  926) = (   0.0952381  -0.4285714  -0.4761905), wk =   0.0004319
        k(  927) = (   0.0952381  -0.4285714  -0.4285714), wk =   0.0004319
        k(  928) = (   0.0952381  -0.4285714  -0.3809524), wk =   0.0004319
        k(  929) = (   0.0952381  -0.4285714  -0.3333333), wk =   0.0004319
        k(  930) = (   0.0952381  -0.4285714  -0.2857143), wk =   0.0004319
        k(  931) = (   0.0952381  -0.4285714  -0.2380952), wk =   0.0004319
        k(  932) = (   0.0952381  -0.4285714  -0.1904762), wk =   0.0004319
        k(  933) = (   0.0952381  -0.4285714  -0.1428571), wk =   0.0004319
        k(  934) = (   0.0952381  -0.4285714  -0.0952381), wk =   0.0004319
        k(  935) = (   0.0952381  -0.4285714  -0.0476190), wk =   0.0004319
        k(  936) = (   0.0952381  -0.3809524   0.0000000), wk =   0.0004319
        k(  937) = (   0.0952381  -0.3809524   0.0476190), wk =   0.0004319
        k(  938) = (   0.0952381  -0.3809524   0.0952381), wk =   0.0004319
        k(  939) = (   0.0952381  -0.3809524   0.1428571), wk =   0.0004319
        k(  940) = (   0.0952381  -0.3809524   0.1904762), wk =   0.0004319
        k(  941) = (   0.0952381  -0.3809524   0.2380952), wk =   0.0004319
        k(  942) = (   0.0952381  -0.3809524   0.2857143), wk =   0.0004319
        k(  943) = (   0.0952381  -0.3809524   0.3333333), wk =   0.0004319
        k(  944) = (   0.0952381  -0.3809524   0.3809524), wk =   0.0004319
        k(  945) = (   0.0952381  -0.3809524   0.4285714), wk =   0.0004319
        k(  946) = (   0.0952381  -0.3809524   0.4761905), wk =   0.0004319
        k(  947) = (   0.0952381  -0.3809524  -0.4761905), wk =   0.0004319
        k(  948) = (   0.0952381  -0.3809524  -0.4285714), wk =   0.0004319
        k(  949) = (   0.0952381  -0.3809524  -0.3809524), wk =   0.0004319
        k(  950) = (   0.0952381  -0.3809524  -0.3333333), wk =   0.0004319
        k(  951) = (   0.0952381  -0.3809524  -0.2857143), wk =   0.0004319
        k(  952) = (   0.0952381  -0.3809524  -0.2380952), wk =   0.0004319
        k(  953) = (   0.0952381  -0.3809524  -0.1904762), wk =   0.0004319
        k(  954) = (   0.0952381  -0.3809524  -0.1428571), wk =   0.0004319
        k(  955) = (   0.0952381  -0.3809524  -0.0952381), wk =   0.0004319
        k(  956) = (   0.0952381  -0.3809524  -0.0476190), wk =   0.0004319
        k(  957) = (   0.0952381  -0.3333333   0.0000000), wk =   0.0004319
        k(  958) = (   0.0952381  -0.3333333   0.0476190), wk =   0.0004319
        k(  959) = (   0.0952381  -0.3333333   0.0952381), wk =   0.0004319
        k(  960) = (   0.0952381  -0.3333333   0.1428571), wk =   0.0004319
        k(  961) = (   0.0952381  -0.3333333   0.1904762), wk =   0.0004319
        k(  962) = (   0.0952381  -0.3333333   0.2380952), wk =   0.0004319
        k(  963) = (   0.0952381  -0.3333333   0.2857143), wk =   0.0004319
        k(  964) = (   0.0952381  -0.3333333   0.3333333), wk =   0.0004319
        k(  965) = (   0.0952381  -0.3333333   0.3809524), wk =   0.0004319
        k(  966) = (   0.0952381  -0.3333333   0.4285714), wk =   0.0004319
        k(  967) = (   0.0952381  -0.3333333   0.4761905), wk =   0.0004319
        k(  968) = (   0.0952381  -0.3333333  -0.4761905), wk =   0.0004319
        k(  969) = (   0.0952381  -0.3333333  -0.4285714), wk =   0.0004319
        k(  970) = (   0.0952381  -0.3333333  -0.3809524), wk =   0.0004319
        k(  971) = (   0.0952381  -0.3333333  -0.3333333), wk =   0.0004319
        k(  972) = (   0.0952381  -0.3333333  -0.2857143), wk =   0.0004319
        k(  973) = (   0.0952381  -0.3333333  -0.2380952), wk =   0.0004319
        k(  974) = (   0.0952381  -0.3333333  -0.1904762), wk =   0.0004319
        k(  975) = (   0.0952381  -0.3333333  -0.1428571), wk =   0.0004319
        k(  976) = (   0.0952381  -0.3333333  -0.0952381), wk =   0.0004319
        k(  977) = (   0.0952381  -0.3333333  -0.0476190), wk =   0.0004319
        k(  978) = (   0.0952381  -0.2857143   0.0000000), wk =   0.0004319
        k(  979) = (   0.0952381  -0.2857143   0.0476190), wk =   0.0004319
[...]
    13.0756  13.5217

     occupation numbers 
     1.0000   1.0000   1.0000   1.0000   1.0002   1.0048  -0.0000  -0.0000
    -0.0000  -0.0000

          k = 0.4762-0.0952 0.2857 (  1584 PWs)   bands (ev):

     0.6802   1.1535   4.8541   5.3022   8.4479   8.8858  12.4316  12.5424
    12.8775  12.9489

     occupation numbers 
     1.0000   1.0000   1.0000   1.0000   1.0012   1.0159  -0.0000  -0.0000
    -0.0000  -0.0000

          k = 0.4762-0.0952 0.3333 (  1582 PWs)   bands (ev):

     0.9735   1.4454   4.2286   4.6826   8.7203   9.1614  11.8250  12.2707
    12.8452  13.2675

     occupation numbers 
     1.0000   1.0000   1.0000   1.0000   1.0070   1.0346  -0.0000  -0.0000
    -0.0000  -0.0000

          k = 0.4762-0.0952 0.3810 (  1582 PWs)   bands (ev):

     1.3109   1.7813   3.6403   4.0986   9.0370   9.4799  11.2576  11.7031
    13.1797  13.6108

     occupation numbers 
     1.0000   1.0000   1.0000   1.0000   1.0271   0.9829  -0.0041  -0.0001
    -0.0000  -0.0000

          k = 0.4762-0.0952 0.4286 (  1588 PWs)   bands (ev):

     1.6919   2.1606   3.0912   3.5529   9.3970   9.8410  10.7304  11.1757
    13.5487  13.9851

     occupation numbers 
     1.0000   1.0000   1.0000   1.0000   1.0134   0.6429  -0.0344  -0.0067
    -0.0000  -0.0000

          k = 0.4762-0.0952 0.4762 (  1591 PWs)   bands (ev):

     2.1161   2.5828   2.5828   3.0472   9.7996  10.2442  10.2442  10.6892
    13.9533  14.3929

     occupation numbers 
     1.0000   1.0000   1.0000   1.0000   0.6973   0.1297   0.1297  -0.0354
    -0.0000  -0.0000

          k = 0.4762-0.0952-0.4762 (  1591 PWs)   bands (ev):

     2.1161   2.5828   2.5828   3.0472   9.7996  10.2442  10.2442  10.6892
    13.9533  14.3929

     occupation numbers 
     1.0000   1.0000   1.0000   1.0000   0.6973   0.1297   0.1297  -0.0354
    -0.0000  -0.0000

          k = 0.4762-0.0952-0.4286 (  1588 PWs)   bands (ev):

     1.6919   2.1606   3.0912   3.5529   9.3970   9.8410  10.7304  11.1757
    13.5487  13.9851

     occupation numbers 
     1.0000   1.0000   1.0000   1.0000   1.0134   0.6429  -0.0344  -0.0067
    -0.0000  -0.0000

          k = 0.4762-0.0952-0.3810 (  1582 PWs)   bands (ev):

     1.3109   1.7813   3.6403   4.0986   9.0370   9.4799  11.2576  11.7031
    13.1797  13.6108

     occupation numbers 
     1.0000   1.0000   1.0000   1.0000   1.0271   0.9829  -0.0041  -0.0001
    -0.0000  -0.0000

          k = 0.4762-0.0952-0.3333 (  1582 PWs)   bands (ev):

     0.9735   1.4454   4.2286   4.6826   8.7203   9.1614  11.8250  12.2707
    12.8452  13.2675

     occupation numbers 
     1.0000   1.0000   1.0000   1.0000   1.0070   1.0346  -0.0000  -0.0000
    -0.0000  -0.0000

          k = 0.4762-0.0952-0.2857 (  1584 PWs)   bands (ev):

     0.6802   1.1535   4.8541   5.3022   8.4479   8.8858  12.4316  12.5424
    12.8775  12.9489

     occupation numbers 
     1.0000   1.0000   1.0000   1.0000   1.0012   1.0159  -0.0000  -0.0000
    -0.0000  -0.0000

          k = 0.4762-0.0952-0.2381 (  1582 PWs)   bands (ev):

     0.4315   0.9058   5.5135   5.9521   8.2227   8.6540  12.2647  12.6404
    13.0756  13.5217

     occupation numbers 
     1.0000   1.0000   1.0000   1.0000   1.0002   1.0048  -0.0000  -0.0000
    -0.0000  -0.0000

          k = 0.4762-0.0952-0.1905 (  1583 PWs)   bands (ev):

     0.2276   0.7027   6.2007   6.6192   8.0534   8.4676  11.9966  12.3084
    13.7538  14.3590

     occupation numbers 
     1.0000   1.0000   1.0000   1.0000   1.0000   1.0014  -0.0000  -0.0000
    -0.0000  -0.0000

          k = 0.4762-0.0952-0.1429 (  1579 PWs)   bands (ev):

     0.0687   0.5446   6.9015   7.2482   7.9868   8.3321  11.7043  11.8880
    13.6467  13.8283

     occupation numbers 
     1.0000   1.0000   1.0000   1.0000   1.0000   1.0005  -0.0001  -0.0000
    -0.0000  -0.0000

          k = 0.4762-0.0952-0.0952 (  1582 PWs)   bands (ev):

    -0.0449   0.4314   7.5660   7.5660   8.2768   8.2768  11.3297  11.3297
    13.1894  13.1894

     occupation numbers 
     1.0000   1.0000   1.0000   1.0000   1.0003   1.0003  -0.0026  -0.0026
    -0.0000  -0.0000

          k = 0.4762-0.0952-0.0476 (  1586 PWs)   bands (ev):

    -0.1132   0.3635   7.5842   7.9482   8.4814   8.8514  10.7264  10.8631
    12.8193  12.9617

     occupation numbers 
     1.0000   1.0000   1.0000   1.0000   1.0015   1.0136  -0.0346  -0.0262
    -0.0000  -0.0000

          k = 0.4762-0.0476 0.0000 (  1582 PWs)   bands (ev):

    -0.2042   0.2729   8.2665   8.6759   8.6801   9.1177  10.0506  10.0822
    12.3256  12.3854

     occupation numbers 
     1.0000   1.0000   1.0003   1.0055   1.0056   1.0326   0.3521   0.3106
    -0.0000  -0.0000

          k = 0.4762-0.0476 0.0476 (  1584 PWs)   bands (ev):

    -0.1814   0.2955   8.2539   8.2539   8.7791   8.7791  10.3535  10.3535
    12.4870  12.4870

     occupation numbers 
     1.0000   1.0000   1.0003   1.0003   1.0096   1.0096   0.0464   0.0464
    -0.0000  -0.0000

          k = 0.4762-0.0476 0.0952 (  1586 PWs)   bands (ev):

    -0.1132   0.3635   7.5842   7.9482   8.4814   8.8514  10.7264  10.8631
    12.8193  12.9617

     occupation numbers 
     1.0000   1.0000   1.0000   1.0000   1.0015   1.0136  -0.0346  -0.0262
    -0.0000  -0.0000

          k = 0.4762-0.0476 0.1429 (  1583 PWs)   bands (ev):

     0.0005   0.4767   6.8635   7.2823   8.5389   8.9592  11.0178  11.2902
    13.4119  13.6847

     occupation numbers 
     1.0000   1.0000   1.0000   1.0000   1.0023   1.0212  -0.0148  -0.0034
    -0.0000  -0.0000

          k = 0.4762-0.0476 0.1905 (  1582 PWs)   bands (ev):

     0.1595   0.6350   6.1473   6.5829   8.6762   9.1080  11.2673  11.6204
    14.2172  14.5635

     occupation numbers 
     1.0000   1.0000   1.0000   1.0000   1.0055   1.0320  -0.0039  -0.0003
    -0.0000  -0.0000

          k = 0.4762-0.0476 0.2381 (  1590 PWs)   bands (ev):

     0.3635   0.8382   5.4540   5.8987   8.8622   9.2985  11.5164  11.9111
    13.7135  14.1586

     occupation numbers 
     1.0000   1.0000   1.0000   1.0000   1.0143   1.0313  -0.0007  -0.0000
    -0.0000  -0.0000

          k = 0.4762-0.0476 0.2857 (  1583 PWs)   bands (ev):

     0.6124   1.0860   4.7916   5.2425   9.0924   9.5311  11.7862  12.2029
    13.0668  13.5113

     occupation numbers 
     1.0000   1.0000   1.0000   1.0000   1.0311   0.9556  -0.0001  -0.0000
    -0.0000  -0.0000

          k = 0.4762-0.0476 0.3333 (  1583 PWs)   bands (ev):

     0.9059   1.3781   4.1644   4.6200   9.3657   9.8059  12.0864  12.4594
    12.5153  12.9035

     occupation numbers 
     1.0000   1.0000   1.0000   1.0000   1.0209   0.6892  -0.0000  -0.0000
    -0.0000  -0.0000

          k = 0.4762-0.0476 0.3810 (  1588 PWs)   bands (ev):

     1.2435   1.7143   3.5751   4.0343   9.6816  10.1227  11.8925  12.3362
    12.4210  12.8571

     occupation numbers 
     1.0000   1.0000   1.0000   1.0000   0.8337   0.2598  -0.0000  -0.0000
    -0.0000  -0.0000

          k = 0.4762-0.0476 0.4286 (  1595 PWs)   bands (ev):

     1.6248   2.0939   3.0254   3.4876  10.0398  10.4816  11.3668  11.8100
    12.7919  13.2323

     occupation numbers 
     1.0000   1.0000   1.0000   1.0000   0.3667  -0.0107  -0.0020  -0.0000
    -0.0000  -0.0000

          k = 0.4762-0.0476 0.4762 (  1600 PWs)   bands (ev):

     2.0493   2.5164   2.5164   2.9813  10.4402  10.8826  10.8826  11.3254
    13.1992  13.6423

     occupation numbers 
     1.0000   1.0000   1.0000   1.0000   0.0034  -0.0247  -0.0247  -0.0027
    -0.0000  -0.0000

          k = 0.4762-0.0476-0.4762 (  1600 PWs)   bands (ev):

     2.0493   2.5164   2.5164   2.9813  10.4402  10.8826  10.8826  11.3254
    13.1994  13.6423

     occupation numbers 
     1.0000   1.0000   1.0000   1.0000   0.0034  -0.0247  -0.0247  -0.0027
    -0.0000  -0.0000

          k = 0.4762-0.0476-0.4286 (  1595 PWs)   bands (ev):

     1.6248   2.0939   3.0254   3.4876  10.0398  10.4816  11.3668  11.8100
    12.7919  13.2323

     occupation numbers 
     1.0000   1.0000   1.0000   1.0000   0.3667  -0.0107  -0.0020  -0.0000
    -0.0000  -0.0000

          k = 0.4762-0.0476-0.3810 (  1588 PWs)   bands (ev):

     1.2435   1.7143   3.5751   4.0343   9.6816  10.1227  11.8925  12.3362
    12.4210  12.8571

     occupation numbers 
     1.0000   1.0000   1.0000   1.0000   0.8337   0.2598  -0.0000  -0.0000
    -0.0000  -0.0000

          k = 0.4762-0.0476-0.3333 (  1583 PWs)   bands (ev):

     0.9059   1.3781   4.1644   4.6200   9.3657   9.8059  12.0864  12.4594
    12.5153  12.9035

     occupation numbers 
     1.0000   1.0000   1.0000   1.0000   1.0209   0.6892  -0.0000  -0.0000
    -0.0000  -0.0000

          k = 0.4762-0.0476-0.2857 (  1583 PWs)   bands (ev):

     0.6124   1.0860   4.7916   5.2425   9.0924   9.5311  11.7862  12.2029
    13.0668  13.5113

     occupation numbers 
     1.0000   1.0000   1.0000   1.0000   1.0311   0.9556  -0.0001  -0.0000
    -0.0000  -0.0000

          k = 0.4762-0.0476-0.2381 (  1590 PWs)   bands (ev):

     0.3635   0.8382   5.4540   5.8987   8.8622   9.2985  11.5164  11.9111
    13.7135  14.1586

     occupation numbers 
     1.0000   1.0000   1.0000   1.0000   1.0143   1.0313  -0.0007  -0.0000
    -0.0000  -0.0000

          k = 0.4762-0.0476-0.1905 (  1582 PWs)   bands (ev):

     0.1595   0.6350   6.1473   6.5829   8.6762   9.1080  11.2673  11.6204
    14.2172  14.5636

     occupation numbers 
     1.0000   1.0000   1.0000   1.0000   1.0055   1.0320  -0.0039  -0.0003
    -0.0000  -0.0000

          k = 0.4762-0.0476-0.1429 (  1583 PWs)   bands (ev):

     0.0005   0.4767   6.8635   7.2823   8.5389   8.9592  11.0178  11.2902
    13.4119  13.6847

     occupation numbers 
     1.0000   1.0000   1.0000   1.0000   1.0023   1.0212  -0.0148  -0.0034
    -0.0000  -0.0000

          k = 0.4762-0.0476-0.0952 (  1586 PWs)   bands (ev):

    -0.1132   0.3635   7.5842   7.9482   8.4814   8.8514  10.7264  10.8631
    12.8193  12.9617

     occupation numbers 
     1.0000   1.0000   1.0000   1.0000   1.0015   1.0136  -0.0346  -0.0262
    -0.0000  -0.0000

          k = 0.4762-0.0476-0.0476 (  1584 PWs)   bands (ev):

    -0.1814   0.2955   8.2539   8.2539   8.7791   8.7791  10.3535  10.3535
    12.4870  12.4870

     occupation numbers 
     1.0000   1.0000   1.0003   1.0003   1.0096   1.0096   0.0464   0.0464
    -0.0000  -0.0000

     the Fermi energy is     9.9440 ev

!    total energy              =    -157.96460082 Ry
     Harris-Foulkes estimate   =    -157.96460082 Ry
     estimated scf accuracy    <          3.9E-13 Ry

     total all-electron energy =     -1942.535727 Ry

     The total energy is the sum of the following terms:

     one-electron contribution =      14.56980820 Ry
     hartree contribution      =       0.03386716 Ry
     xc contribution           =     -10.78566334 Ry
     ewald contribution        =     -22.98509541 Ry
     one-center paw contrib.   =    -138.79793673 Ry
      -> PAW hartree energy AE =       1.83605182 Ry
      -> PAW hartree energy PS =      -1.83049219 Ry
      -> PAW xc energy AE      =     -36.79875103 Ry
      -> PAW xc energy PS      =       2.09370727 Ry
      -> total E_H with PAW    =       0.03942679 Ry
      -> total E_XC with PAW   =     -45.49070709 Ry
     smearing contrib. (-TS)   =       0.00041931 Ry

     convergence has been achieved in  10 iterations

     Forces acting on atoms (cartesian axes, Ry/au):

     atom    1 type  1   force =     0.00000000    0.00000001    0.00000001
     atom    2 type  1   force =    -0.00000002    0.00000001    0.00000002
     atom    3 type  1   force =     0.00000001   -0.00000002   -0.00000002
     atom    4 type  1   force =     0.00000002   -0.00000000   -0.00000000
     The non-local contrib.  to forces
     atom    1 type  1   force =     0.00000002    0.00000002   -0.00000002
     atom    2 type  1   force =    -0.00000003    0.00000007   -0.00000004
     atom    3 type  1   force =     0.00000002   -0.00000009    0.00000003
     atom    4 type  1   force =     0.00000001    0.00000005   -0.00000002
     The ionic contribution  to forces
     atom    1 type  1   force =    -0.00000000   -0.00000000   -0.00000000
     atom    2 type  1   force =    -0.00000000    0.00000000    0.00000000
     atom    3 type  1   force =     0.00000000   -0.00000000    0.00000000
     atom    4 type  1   force =     0.00000000    0.00000000   -0.00000000
     The local contribution  to forces
     atom    1 type  1   force =     0.00000002   -0.00000011    0.00000002
     atom    2 type  1   force =     0.00000006    0.00000003    0.00000005
     atom    3 type  1   force =    -0.00000006   -0.00000002   -0.00000004
     atom    4 type  1   force =    -0.00000005    0.00000005    0.00000000
     The core correction contribution to forces
     atom    1 type  1   force =    -0.00000000   -0.00000000    0.00000000
     atom    2 type  1   force =     0.00000000   -0.00000001    0.00000001
     atom    3 type  1   force =    -0.00000000    0.00000001   -0.00000001
     atom    4 type  1   force =    -0.00000000   -0.00000001    0.00000000
     The Hubbard contrib.    to forces
     atom    1 type  1   force =     0.00000000    0.00000000    0.00000000
     atom    2 type  1   force =     0.00000000    0.00000000    0.00000000
     atom    3 type  1   force =     0.00000000    0.00000000    0.00000000
     atom    4 type  1   force =     0.00000000    0.00000000    0.00000000
     The SCF correction term to forces
     atom    1 type  1   force =    -0.00000004    0.00000010    0.00000001
     atom    2 type  1   force =    -0.00000006   -0.00000009    0.00000000
     atom    3 type  1   force =     0.00000004    0.00000009   -0.00000001
     atom    4 type  1   force =     0.00000005   -0.00000010    0.00000000

     Total force =     0.000000     Total SCF correction =     0.000000
     SCF correction compared to forces is large: reduce conv_thr to get better values


     Computing stress (Cartesian axis) and pressure

          total   stress  (Ry/bohr**3)                   (kbar)     P=  216.99
   0.00147506   0.00000000   0.00000000        216.99      0.00      0.00
   0.00000000   0.00147506   0.00000000          0.00    216.99      0.00
   0.00000000   0.00000000   0.00147506          0.00      0.00    216.99

     kinetic stress (kbar)   1988.69      0.00      0.00
                                0.00   1988.69      0.00
                                0.00      0.00   1988.69

     local   stress (kbar)    927.31     -0.00     -0.00
                               -0.00    927.31     -0.00
                               -0.00     -0.00    927.31

     nonloc. stress (kbar)   1342.85      0.00      0.00
                                0.00   1342.85      0.00
                                0.00      0.00   1342.85

     hartree stress (kbar)      4.48     -0.00     -0.00
                               -0.00      4.48     -0.00
                               -0.00     -0.00      4.48

     exc-cor stress (kbar)    564.67      0.00      0.00
                                0.00    564.67      0.00
                                0.00      0.00    564.67

     corecor stress (kbar)  -1567.28     -0.00     -0.00
                               -0.00  -1567.28     -0.00
                               -0.00     -0.00  -1567.28

     ewald   stress (kbar)  -3043.72     -0.00      0.00
                               -0.00  -3043.72     -0.00
                                0.00     -0.00  -3043.72

     hubbard stress (kbar)      0.00      0.00      0.00
                                0.00      0.00      0.00
                                0.00      0.00      0.00

     london  stress (kbar)      0.00      0.00      0.00
                                0.00      0.00      0.00
                                0.00      0.00      0.00

     DFT-D3  stress (kbar)      0.00      0.00      0.00
                                0.00      0.00      0.00
                                0.00      0.00      0.00

     XDM     stress (kbar)      0.00      0.00      0.00
                                0.00      0.00      0.00
                                0.00      0.00      0.00

     dft-nl  stress (kbar)      0.00      0.00      0.00
                                0.00      0.00      0.00
                                0.00      0.00      0.00

     TS-vdW  stress (kbar)      0.00      0.00      0.00
                                0.00      0.00      0.00
                                0.00      0.00      0.00



     Writing output data file aiida.save/
 
     init_run     :      7.47s CPU      7.92s WALL (       1 calls)
     electrons    :    219.17s CPU    236.53s WALL (       1 calls)
     forces       :      1.37s CPU      1.40s WALL (       1 calls)
     stress       :      2.49s CPU      2.50s WALL (       1 calls)

     Called by init_run:
     wfcinit      :      7.33s CPU      7.74s WALL (       1 calls)
     wfcinit:atom :      0.05s CPU      0.05s WALL (    2316 calls)
     wfcinit:wfcr :      7.02s CPU      7.41s WALL (    2316 calls)
     potinit      :      0.06s CPU      0.07s WALL (       1 calls)
     hinit0       :      0.04s CPU      0.06s WALL (       1 calls)

     Called by electrons:
     c_bands      :    200.54s CPU    216.83s WALL (      11 calls)
     sum_band     :     17.91s CPU     18.87s WALL (      11 calls)
     v_of_rho     :      0.02s CPU      0.02s WALL (      11 calls)
     v_h          :      0.00s CPU      0.00s WALL (      11 calls)
     v_xc         :      0.02s CPU      0.03s WALL (      13 calls)
     newd         :      0.02s CPU      0.02s WALL (      11 calls)
     PAW_pot      :      0.61s CPU      0.64s WALL (      11 calls)
     mix_rho      :      0.02s CPU      0.02s WALL (      11 calls)

     Called by c_bands:
     init_us_2    :      2.39s CPU      2.51s WALL (   57900 calls)
     cegterg      :    175.58s CPU    183.72s WALL (   25476 calls)

     Called by sum_band:
     sum_band:bec :      0.35s CPU      0.37s WALL (   25476 calls)
     addusdens    :      0.02s CPU      0.02s WALL (      11 calls)

     Called by *egterg:
     h_psi        :     82.34s CPU     86.36s WALL (   83422 calls)
     s_psi        :      2.36s CPU      2.50s WALL (   83422 calls)
     g_psi        :      0.38s CPU      0.40s WALL (   55630 calls)
     cdiaghg      :     79.52s CPU     83.05s WALL (   78790 calls)
     cegterg:over :      7.68s CPU      8.07s WALL (   55630 calls)
     cegterg:upda :      3.74s CPU      3.92s WALL (   55630 calls)
     cegterg:last :      1.49s CPU      1.55s WALL (   25556 calls)
     cdiaghg:chol :      5.10s CPU      5.36s WALL (   78790 calls)
     cdiaghg:inve :      4.30s CPU      4.52s WALL (   78790 calls)
     cdiaghg:para :      5.94s CPU      6.19s WALL (  157580 calls)

     Called by h_psi:
     h_psi:pot    :     81.99s CPU     86.00s WALL (   83422 calls)
     h_psi:calbec :      5.29s CPU      5.55s WALL (   83422 calls)
     vloc_psi     :     73.65s CPU     77.25s WALL (   83422 calls)
     add_vuspsi   :      2.55s CPU      2.70s WALL (   83422 calls)

     General routines
     calbec       :      7.50s CPU      7.90s WALL (  120478 calls)
     fft          :      0.03s CPU      0.04s WALL (     168 calls)
     ffts         :      0.02s CPU      0.02s WALL (     129 calls)
     fftw         :     81.84s CPU     85.89s WALL ( 1587904 calls)
     interpolate  :      0.00s CPU      0.00s WALL (      11 calls)
 
     Parallel routines
     fft_scatt_xy :      7.83s CPU      8.23s WALL ( 1588201 calls)
     fft_scatt_yz :     47.74s CPU     50.36s WALL ( 1588201 calls)

     PAW routines
     PAW_pot      :      0.61s CPU      0.64s WALL (      11 calls)
 
     PWSCF        :   4m10.21s CPU  12m19.23s WALL

 
   This run was terminated on:  13:42:16  20Feb2020            

=------------------------------------------------------------------------------=
   JOB DONE.
=------------------------------------------------------------------------------=
