begin
comment 22 atoms, species Al4Mg10Si8
lattice     27.8548489419     0.0076495494    -7.9806821589
lattice      0.0278455188     7.6615163008    -0.0079682806
lattice      0.0000000000     0.0000000000    12.9203786788
atom      0.0599272654     7.6599110544    12.7550093292   Mg  0.0 0.0    8.90999933e-06 -1.36499990e-06 -6.04999955e-07
atom      2.1181080706     3.8273274434     3.8860667105   Mg  0.0 0.0   -4.13574969e-04 -5.54999958e-07  7.67749942e-05
atom      4.3581366298     3.8287994021    10.4056211893   Mg  0.0 0.0   -6.36589952e-04 -3.22499976e-06 -2.41789982e-04
atom      9.6757150946     7.6634663563    -1.8018600520   Mg  0.0 0.0    6.36769952e-04  3.28999975e-06  2.41599982e-04
atom     11.8878981350     0.0034278094     4.7256540148   Mg  0.0 0.0    4.13449969e-04  5.89999956e-07 -7.63799943e-05
atom      1.6698821445     7.6595430647     7.8774653981   Si  0.0 0.0   -2.71789980e-04 -1.45099989e-05 -2.70074980e-04
atom      5.2032032136     0.0043173593     1.2362772889   Si  0.0 0.0    1.11099992e-04  2.09299984e-05  1.34604990e-04
atom      6.0989161889     7.6624232360     6.0795025598   Al  0.0 0.0   -2.92824978e-04  7.34999945e-07 -2.24609983e-04
atom      7.9349355355     3.8298396249     2.5242991434   Al  0.0 0.0    2.92354978e-04 -6.54999951e-07  2.24214983e-04
atom      8.8028406603     3.8264320984     7.3754666168   Si  0.0 0.0   -1.11594992e-04 -2.10849984e-05 -1.34819990e-04
atom     12.3639174239     3.8327082060     0.7262870465   Si  0.0 0.0    2.71604980e-04  1.44399989e-05  2.70374980e-04
atom     13.9739041762     3.8323662943     8.7691304869   Mg  0.0 0.0   -6.80499949e-06  1.33499990e-06  6.79999949e-07
atom     16.0596871055     7.6612497256    -0.1079542658   Mg  0.0 0.0   -4.21949968e-04  3.03999977e-06  7.99599940e-05
atom     18.2993071092     7.6629534888     6.4113742036   Mg  0.0 0.0   -6.32469952e-04 -1.41999989e-06 -2.38464982e-04
atom     23.5893819669     3.8369734093    -5.7883068154   Mg  0.0 0.0    6.32604952e-04  1.47999989e-06  2.38294982e-04
atom     25.8290106633     3.8386771725     0.7310042687   Mg  0.0 0.0    4.21689968e-04 -2.97999978e-06 -7.95649940e-05
atom     15.5830796126     3.8319200706     3.8914909365   Si  0.0 0.0   -2.56849981e-04 -8.82999934e-06 -2.80599979e-04
atom     19.1448315069     3.8388568210    -2.7578422043   Si  0.0 0.0    1.04354992e-04  1.83199986e-05  1.28979990e-04
atom     20.0122150715     3.8354058311     2.0934179910   Al  0.0 0.0   -2.97409978e-04  1.97999985e-06 -2.29644983e-04
atom     21.8764711070     7.6645210669    -1.4703100370   Al  0.0 0.0    2.97114978e-04 -2.09499984e-06  2.29389983e-04
atom     22.7439010325     7.6610613844     3.3809153877   Si  0.0 0.0   -1.04694992e-04 -1.82649986e-05 -1.29344990e-04
atom     26.3055602050     7.6679923397    -3.2684322409   Si  0.0 0.0    2.56599981e-04  8.84499934e-06  2.81024979e-04
energy -2.928222501640822e+02
charge 0.0000
end
