
     Program PWSCF v.6.3 starts on 22Feb2020 at 14:11:50 

     This program is part of the open-source Quantum ESPRESSO suite
     for quantum simulation of materials; please cite
         "P. Giannozzi et al., J. Phys.:Condens. Matter 21 395502 (2009);
         "P. Giannozzi et al., J. Phys.:Condens. Matter 29 465901 (2017);
          URL http://www.quantum-espresso.org", 
     in publications or presentations arising from this work. More details at
     http://www.quantum-espresso.org/quote

 *** WARNING: using old-style file format, will disappear from next version ***

     Parallel version (MPI & OpenMP), running on      36 processor cores
     Number of MPI processes:                36
     Threads/MPI process:                     1

     MPI processes distributed on     1 nodes
     K-points division:     npool     =       4
     R & G space division:  proc/nbgrp/npool/nimage =       9
     Reading input from aiida.in
Warning: card &IONS ignored
Warning: card   !PRESS_CONV_THR = 0.05                 ! JUST FOR VOLUME RELAXATIONS ignored
Warning: card / ignored

     Current dimensions of program PWSCF are:
     Max number of different atomic species (ntypx) = 10
     Max number of k-points (npk) =  40000
     Max angular momentum in pseudopotentials (lmaxx) =  3
               file Mg.pbe-n-kjpaw_psl.0.3.0.UPF: wavefunction(s)  3S renormalized
               file Al.pbe-n-kjpaw_psl.1.0.0.UPF: wavefunction(s)  3S 3P renormalized

     Subspace diagonalization in iterative solution of the eigenvalue problem:
     one sub-group per band group will be used
     scalapack distributed-memory algorithm (size of sub-group:  2*  2 procs)

 
     Parallelization info
     --------------------
     sticks:   dense  smooth     PW     G-vecs:    dense   smooth      PW
     Min        7725    3092    843               383617    97079   13835
     Max        7726    3093    844               383618    97080   13836
     Sum       69529   27833   7589              3452559   873713  124519
 


     bravais-lattice index     =            0
     lattice parameter (alat)  =      27.6424  a.u.
     unit-cell volume          =   25556.7983 (a.u.)^3
     number of atoms/cell      =          220
     number of atomic types    =            3
     number of electrons       =       650.00
     number of Kohn-Sham states=          390
     kinetic-energy cutoff     =      40.0000  Ry
     charge density cutoff     =     400.0000  Ry
     convergence threshold     =      1.0E-12
     mixing beta               =       0.4000
     number of iterations used =            8  local-TF  mixing
     Exchange-correlation      = SLA PW PBX PBC ( 1  4  3  4 0 0)

     celldm(1)=  27.642373  celldm(2)=   0.000000  celldm(3)=   0.000000
     celldm(4)=   0.000000  celldm(5)=   0.000000  celldm(6)=   0.000000

     crystal axes: (cart. coord. in units of alat)
               a(1) = (   0.554700   0.000000   0.832050 )  
               a(2) = (   0.000000   2.859968   0.000000 )  
               a(3) = (  -0.416025   0.000000   0.138675 )  

     reciprocal axes: (cart. coord. in units 2 pi/alat)
               b(1) = (  0.327777  0.000000  0.983332 )  
               b(2) = (  0.000000  0.349654  0.000000 )  
               b(3) = ( -1.966664  0.000000  1.311110 )  


     PseudoPot. # 1 for Mg read from file:
     /users/aglensk/Dropbox/Albert/scripts/dotfiles/scripts/potentials/quantum_espresso/pseudo_SSSPefV1.1_alalloy/Mg.pbe-n-kjpaw_psl.0.3.0.UPF
     MD5 check sum: 24ecedc7f3e3cbe212e682f4413594e4
     Pseudo is Projector augmented-wave + core cor, Zval =  2.0
     Generated using "atomic" code by A. Dal Corso v.5.0.99 svn rev. 10869
     Shape of augmentation charge: PSQ
     Using radial grid of 1129 points,  4 beta functions with: 
                l(1) =   0
                l(2) =   0
                l(3) =   1
                l(4) =   1
     Q(r) pseudized with 0 coefficients 


     PseudoPot. # 2 for Si read from file:
     /users/aglensk/Dropbox/Albert/scripts/dotfiles/scripts/potentials/quantum_espresso/pseudo_SSSPefV1.1_alalloy/Si.pbe-n-rrkjus_psl.1.0.0.UPF
     MD5 check sum: 0b0bb1205258b0d07b9f9672cf965d36
     Pseudo is Ultrasoft + core correction, Zval =  4.0
     Generated using "atomic" code by A. Dal Corso v.5.1
     Using radial grid of 1141 points,  6 beta functions with: 
                l(1) =   0
                l(2) =   0
                l(3) =   1
                l(4) =   1
                l(5) =   2
                l(6) =   2
     Q(r) pseudized with 0 coefficients 


     PseudoPot. # 3 for Al read from file:
     /users/aglensk/Dropbox/Albert/scripts/dotfiles/scripts/potentials/quantum_espresso/pseudo_SSSPefV1.1_alalloy/Al.pbe-n-kjpaw_psl.1.0.0.UPF
     MD5 check sum: cfc449ca30b5f3223ec38ddd88ac046d
     Pseudo is Projector augmented-wave + core cor, Zval =  3.0
     Generated using "atomic" code by A. Dal Corso v.5.1
     Shape of augmentation charge: PSQ
     Using radial grid of 1135 points,  6 beta functions with: 
                l(1) =   0
                l(2) =   0
                l(3) =   1
                l(4) =   1
                l(5) =   2
                l(6) =   2
     Q(r) pseudized with 0 coefficients 


     atomic species   valence    mass     pseudopotential
        Mg             2.00    24.30500     Mg( 1.00)
        Si             4.00    28.08500     Si( 1.00)
        Al             3.00    26.98154     Al( 1.00)

     No symmetry found


                                    s                        frac. trans.

      isym =  1     identity                                     

 cryst.   s( 1) = (     1          0          0      )
                  (     0          1          0      )
                  (     0          0          1      )

 cart.    s( 1) = (  1.0000000  0.0000000 -0.0000000 )
                  (  0.0000000  1.0000000  0.0000000 )
                  (  0.0000000  0.0000000  1.0000000 )


   Cartesian axes

     site n.     atom                  positions (alat units)
         1           Mg  tau(   1) = (  -0.4001447   0.3224741   0.1402562  )
         2           Mg  tau(   2) = (  -0.0999883   0.4471106   0.1170117  )
         3           Mg  tau(   3) = (  -0.2818408   0.4496770   0.2542821  )
         4           Mg  tau(   4) = (   0.1643302   0.3113915   0.3042188  )
         5           Mg  tau(   5) = (  -0.0185968   0.3083913   0.4413339  )
         6           Si  tau(   6) = (  -0.2254001   0.3014887   0.1383175  )
         7           Si  tau(   7) = (   0.0212903   0.3074083   0.1856189  )
         8           Al  tau(   8) = (  -0.1288387   0.2961562   0.2778376  )
         9           Al  tau(   9) = (   0.0091072   0.4514055   0.2843986  )
        10           Si  tau(  10) = (  -0.1394121   0.4521131   0.3709559  )
        11           Si  tau(  11) = (   0.1126269   0.4549783   0.4156968  )
        12           Mg  tau(  12) = (  -0.1293188   0.4559382   0.5560122  )
        13           Mg  tau(  13) = (   0.1717167   0.3099770   0.5278501  )
        14           Mg  tau(  14) = (  -0.0102240   0.3049282   0.6674847  )
        15           Mg  tau(  15) = (   0.4433591   0.4410563   0.7194688  )
        16           Mg  tau(  16) = (   0.2644119   0.4445825   0.8528883  )
        17           Si  tau(  17) = (   0.0444471   0.4511681   0.5594840  )
        18           Si  tau(  18) = (   0.2992702   0.4488471   0.6025490  )
        19           Al  tau(  19) = (   0.1503527   0.4453228   0.6894999  )
        20           Al  tau(  20) = (   0.2840223   0.2935503   0.6920670  )
        21           Si  tau(  21) = (   0.1367926   0.2970177   0.7871659  )
        22           Si  tau(  22) = (   0.3979506   0.2757377   0.8230869  )
        23           Mg  tau(  23) = (  -0.4045153   0.5856753   0.1390246  )
        24           Mg  tau(  24) = (  -0.0966335   0.7380470   0.1104726  )
        25           Mg  tau(  25) = (  -0.2850664   0.7407173   0.2518133  )
        26           Mg  tau(  26) = (   0.1678001   0.5983616   0.3043419  )
        27           Mg  tau(  27) = (  -0.0204827   0.5985199   0.4451314  )
        28           Si  tau(  28) = (  -0.2305635   0.5948333   0.1422689  )
        29           Si  tau(  29) = (   0.0236504   0.5968619   0.1860113  )
        30           Al  tau(  30) = (  -0.1258308   0.5974223   0.2726236  )
        31           Al  tau(  31) = (   0.0084716   0.7424492   0.2844282  )
        32           Si  tau(  32) = (  -0.1410340   0.7432412   0.3709506  )
        33           Si  tau(  33) = (   0.1130845   0.7440332   0.4148595  )
        34           Mg  tau(  34) = (  -0.1285268   0.7421966   0.5565043  )
        35           Mg  tau(  35) = (   0.1788854   0.5977996   0.5296654  )
        36           Mg  tau(  36) = (  -0.0083479   0.5955246   0.6697509  )
        37           Mg  tau(  37) = (   0.4452624   0.7369845   0.7213536  )
        38           Mg  tau(  38) = (   0.2564891   0.7380737   0.8623783  )
        39           Si  tau(  39) = (   0.0459817   0.7416115   0.5593221  )
        40           Si  tau(  40) = (   0.3004241   0.7406481   0.6031217  )
        41           Al  tau(  41) = (   0.1509290   0.7395638   0.6895380  )
        42           Al  tau(  42) = (   0.2858567   0.5941702   0.7006468  )
        43           Si  tau(  43) = (   0.1364099   0.5922329   0.7866712  )
        44           Si  tau(  44) = (   0.3918232   0.5892156   0.8301240  )
        45           Mg  tau(  45) = (  -0.4057520   0.8857775   0.1399709  )
        46           Mg  tau(  46) = (  -0.0981309   1.0308745   0.1122946  )
        47           Mg  tau(  47) = (  -0.2855119   1.0322471   0.2526820  )
        48           Mg  tau(  48) = (   0.1670849   0.8890918   0.3048311  )
        49           Mg  tau(  49) = (  -0.0206017   0.8880794   0.4455196  )
        50           Si  tau(  50) = (  -0.2314174   0.8862636   0.1425752  )
        51           Si  tau(  51) = (   0.0229923   0.8875199   0.1862487  )
        52           Al  tau(  52) = (  -0.1264740   0.8877662   0.2723698  )
        53           Al  tau(  53) = (   0.0080705   1.0331080   0.2850145  )
        54           Si  tau(  54) = (  -0.1413770   1.0336269   0.3710596  )
        55           Si  tau(  55) = (   0.1131454   1.0358016   0.4147110  )
        56           Mg  tau(  56) = (  -0.1285539   1.0331833   0.5560084  )
        57           Mg  tau(  57) = (   0.1792923   0.8880553   0.5282625  )
        58           Mg  tau(  58) = (  -0.0081166   0.8866587   0.6688936  )
        59           Mg  tau(  59) = (   0.4443942   1.0297655   0.7209761  )
        60           Mg  tau(  60) = (   0.2568239   1.0307814   0.8613970  )
        61           Si  tau(  61) = (   0.0457760   1.0326169   0.5586526  )
        62           Si  tau(  62) = (   0.3002252   1.0313462   0.6023549  )
        63           Al  tau(  63) = (   0.1507298   1.0310746   0.6884494  )
        64           Al  tau(  64) = (   0.2854387   0.8857058   0.7011041  )
        65           Si  tau(  65) = (   0.1360320   0.8852537   0.7871664  )
        66           Si  tau(  66) = (   0.3906410   0.8829212   0.8307040  )
        67           Mg  tau(  67) = (  -0.4060243   1.1767578   0.1404043  )
        68           Mg  tau(  68) = (  -0.0987671   1.3210889   0.1137265  )
        69           Mg  tau(  69) = (  -0.2860393   1.3233477   0.2538064  )
        70           Mg  tau(  70) = (   0.1676253   1.1817286   0.3053157  )
        71           Mg  tau(  71) = (  -0.0210742   1.1805836   0.4462370  )
        72           Si  tau(  72) = (  -0.2315366   1.1774394   0.1432210  )
        73           Si  tau(  73) = (   0.0228283   1.1782136   0.1870817  )
        74           Al  tau(  74) = (  -0.1266706   1.1793394   0.2735017  )
        75           Al  tau(  75) = (   0.0081555   1.3246954   0.2847047  )
        76           Si  tau(  76) = (  -0.1412835   1.3265945   0.3707404  )
        77           Si  tau(  77) = (   0.1141268   1.3295732   0.4141102  )
        78           Mg  tau(  78) = (  -0.1275032   1.3327124   0.5551651  )
        79           Mg  tau(  79) = (   0.1803195   1.1806417   0.5266790  )
        80           Mg  tau(  80) = (  -0.0080272   1.1781717   0.6678915  )
        81           Mg  tau(  81) = (   0.4449174   1.3205802   0.7202447  )
        82           Mg  tau(  82) = (   0.2567483   1.3204086   0.8609009  )
        83           Si  tau(  83) = (   0.0464994   1.3240255   0.5583033  )
        84           Si  tau(  84) = (   0.3006677   1.3221261   0.6020836  )
        85           Al  tau(  85) = (   0.1512235   1.3215658   0.6886307  )
        86           Al  tau(  86) = (   0.2856367   1.1764774   0.7004175  )
        87           Si  tau(  87) = (   0.1361269   1.1756835   0.7869084  )
        88           Si  tau(  88) = (   0.3902935   1.1749480   0.8308147  )
        89           Mg  tau(  89) = (  -0.4068186   1.4626350   0.1400926  )
        90           Mg  tau(  90) = (  -0.1054070   1.6088265   0.1119697  )
        91           Mg  tau(  91) = (  -0.2874984   1.6138394   0.2517287  )
        92           Mg  tau(  92) = (   0.1658274   1.4777668   0.3036327  )
        93           Mg  tau(  93) = (  -0.0133914   1.4742284   0.4373030  )
        94           Si  tau(  94) = (  -0.2330569   1.4676298   0.1435354  )
        95           Si  tau(  95) = (   0.0216520   1.4700165   0.1866153  )
        96           Al  tau(  96) = (  -0.1272424   1.4735734   0.2736464  )
        97           Al  tau(  97) = (   0.0067475   1.6251986   0.2764327  )
        98           Si  tau(  98) = (  -0.1405476   1.6218277   0.3714366  )
        99           Si  tau(  99) = (   0.1203533   1.6431070   0.4076613  )
       100           Mg  tau( 100) = (  -0.1230087   1.5965343   0.5563359  )
       101           Mg  tau( 101) = (   0.1771205   1.4718840   0.5329896  )
       102           Mg  tau( 102) = (  -0.0048374   1.4691437   0.6704078  )
       103           Mg  tau( 103) = (   0.4416076   1.6076405   0.7202529  )
       104           Mg  tau( 104) = (   0.2586065   1.6103287   0.8578307  )
       105           Si  tau( 105) = (   0.0517017   1.6174277   0.5548405  )
       106           Si  tau( 106) = (   0.2986751   1.6116913   0.6015559  )
       107           Al  tau( 107) = (   0.1488156   1.6226703   0.6940813  )
       108           Al  tau( 108) = (   0.2862565   1.4677191   0.7004207  )
       109           Si  tau( 109) = (   0.1377745   1.4667862   0.7870920  )
       110           Si  tau( 110) = (   0.3898335   1.4639633   0.8317153  )
       111           Al  tau( 111) = (  -0.2816099   2.0461416   0.1360205  )
       112           Al  tau( 112) = (   0.5504578   1.9076543   0.8289333  )
       113           Al  tau( 113) = (  -0.2814531   1.9082445   0.2744783  )
       114           Al  tau( 114) = (  -0.0041314   2.0445044   0.1366334  )
       115           Al  tau( 115) = (   0.1327358   2.0448753   0.2750675  )
       116           Al  tau( 116) = (  -0.0051829   1.9027197   0.2765335  )
       117           Al  tau( 117) = (   0.1265088   1.9085333   0.4129053  )
       118           Al  tau( 118) = (   0.1338311   2.0430724   0.5528642  )
       119           Al  tau( 119) = (   0.1334576   1.9053399   0.6927016  )
       120           Al  tau( 120) = (   0.2733101   1.9075877   0.8287552  )
       121           Al  tau( 121) = (   0.1336941   2.0450251   0.8299676  )
       122           Al  tau( 122) = (   0.4110669   2.0454845   0.8287421  )
       123           Al  tau( 123) = (  -0.1425518   1.9087778   0.1354072  )
       124           Al  tau( 124) = (  -0.1426265   2.0453815   0.2743594  )
       125           Al  tau( 125) = (  -0.0072266   2.0449193   0.4146170  )
       126           Al  tau( 126) = (  -0.1450386   1.9073883   0.4111275  )
       127           Al  tau( 127) = (  -0.0049178   1.9046420   0.5548936  )
       128           Al  tau( 128) = (   0.2709392   2.0426107   0.4144662  )
       129           Al  tau( 129) = (  -0.0044911   2.0437938   0.6913129  )
       130           Al  tau( 130) = (   0.2751170   1.9056723   0.5563508  )
       131           Al  tau( 131) = (   0.2723737   2.0443913   0.6914207  )
       132           Al  tau( 132) = (   0.4124108   1.9037802   0.6897476  )
       133           Al  tau( 133) = (  -0.2826627   2.3206150   0.1365338  )
       134           Al  tau( 134) = (   0.5495856   2.1827466   0.8299842  )
       135           Al  tau( 135) = (  -0.2824665   2.1829145   0.2752382  )
       136           Al  tau( 136) = (  -0.0052473   2.3207154   0.1366413  )
       137           Al  tau( 137) = (   0.1333995   2.3205939   0.2753837  )
       138           Al  tau( 138) = (  -0.0053337   2.1829040   0.2755136  )
       139           Al  tau( 139) = (   0.1330816   2.1821440   0.4144588  )
       140           Al  tau( 140) = (   0.1333068   2.3200347   0.5525073  )
       141           Al  tau( 141) = (   0.1336322   2.1824319   0.6910341  )
       142           Al  tau( 142) = (   0.2722153   2.1829095   0.8295654  )
       143           Al  tau( 143) = (   0.1332954   2.3205430   0.8298984  )
       144           Al  tau( 144) = (   0.4107089   2.3207252   0.8298961  )
       145           Al  tau( 145) = (  -0.1435740   2.1830210   0.1361823  )
       146           Al  tau( 146) = (  -0.1440276   2.3205498   0.2753284  )
       147           Al  tau( 147) = (  -0.0054492   2.3201532   0.4141288  )
       148           Al  tau( 148) = (  -0.1447481   2.1824872   0.4144602  )
       149           Al  tau( 149) = (  -0.0054413   2.1817287   0.5527882  )
       150           Al  tau( 150) = (   0.2719899   2.3202341   0.4140000  )
       151           Al  tau( 151) = (  -0.0053748   2.3203019   0.6910668  )
       152           Al  tau( 152) = (   0.2722399   2.1820969   0.5524685  )
       153           Al  tau( 153) = (   0.2719381   2.3205046   0.6911529  )
       154           Al  tau( 154) = (   0.4109543   2.1827986   0.6908161  )
       155           Al  tau( 155) = (  -0.2832460   2.5970924   0.1367345  )
       156           Al  tau( 156) = (   0.5491134   2.4586738   0.8300405  )
       157           Al  tau( 157) = (  -0.2828826   2.4585496   0.2750626  )
       158           Al  tau( 158) = (  -0.0055438   2.5967150   0.1363705  )
       159           Al  tau( 159) = (   0.1332427   2.5959917   0.2746863  )
       160           Al  tau( 160) = (  -0.0055012   2.4583038   0.2751813  )
       161           Al  tau( 161) = (   0.1333137   2.4581005   0.4138545  )
       162           Al  tau( 162) = (   0.1335514   2.5958433   0.5521085  )
       163           Al  tau( 163) = (   0.1332842   2.4582678   0.6912041  )
       164           Al  tau( 164) = (   0.2716991   2.4587081   0.8300425  )
       165           Al  tau( 165) = (   0.1322414   2.5963044   0.8304111  )
       166           Al  tau( 166) = (   0.4100195   2.5966538   0.8304101  )
       167           Al  tau( 167) = (  -0.1442437   2.4587990   0.1365365  )
       168           Al  tau( 168) = (  -0.1440763   2.5962984   0.2749651  )
       169           Al  tau( 169) = (  -0.0054331   2.5958870   0.4134782  )
       170           Al  tau( 170) = (  -0.1441330   2.4582864   0.4138825  )
       171           Al  tau( 171) = (  -0.0052948   2.4582286   0.5525214  )
       172           Al  tau( 172) = (   0.2719539   2.5961434   0.4138852  )
       173           Al  tau( 173) = (  -0.0053375   2.5959363   0.6911792  )
       174           Al  tau( 174) = (   0.2720937   2.4581515   0.5525690  )
       175           Al  tau( 175) = (   0.2717658   2.5959046   0.6914263  )
       176           Al  tau( 176) = (   0.4105902   2.4582337   0.6913440  )
       177           Al  tau( 177) = (  -0.2830491   0.0143100   0.1388616  )
       178           Al  tau( 178) = (   0.5476414   2.7362220   0.8303719  )
       179           Al  tau( 179) = (  -0.2824392   2.7349646   0.2751724  )
       180           Al  tau( 180) = (  -0.0029383   0.0130824   0.1402235  )
       181           Al  tau( 181) = (   0.1343772   0.0150716   0.2736041  )
       182           Al  tau( 182) = (  -0.0055831   2.7344319   0.2752725  )
       183           Al  tau( 183) = (   0.1331688   2.7334277   0.4125031  )
       184           Al  tau( 184) = (   0.1343214   0.0100748   0.5512205  )
       185           Al  tau( 185) = (   0.1344103   2.7334827   0.6903335  )
       186           Al  tau( 186) = (   0.2696182   2.7339570   0.8305790  )
       187           Al  tau( 187) = (   0.1318930   0.0115667   0.8271183  )
       188           Al  tau( 188) = (   0.4030968   0.0104253   0.8289350  )
       189           Al  tau( 189) = (  -0.1442354   2.7357370   0.1368121  )
       190           Al  tau( 190) = (  -0.1446529   0.0133803   0.2766484  )
       191           Al  tau( 191) = (  -0.0047137   0.0112771   0.4125776  )
       192           Al  tau( 192) = (  -0.1441988   2.7337214   0.4138427  )
       193           Al  tau( 193) = (  -0.0046574   2.7327786   0.5519580  )
       194           Al  tau( 194) = (   0.2725562   0.0111543   0.4127540  )
       195           Al  tau( 195) = (  -0.0045132   0.0105212   0.6903587  )
       196           Al  tau( 196) = (   0.2728363   2.7343144   0.5525250  )
       197           Al  tau( 197) = (   0.2716918   0.0162248   0.6924644  )
       198           Al  tau( 198) = (   0.4096314   2.7339645   0.6910697  )
       199           Al  tau( 199) = (   0.5374791   0.1363595   0.8312127  )
       200           Al  tau( 200) = (  -0.2875968   0.1677768   0.2690092  )
       201           Al  tau( 201) = (  -0.0007095   0.1534903   0.2786320  )
       202           Al  tau( 202) = (   0.1361759   0.1482821   0.4146660  )
       203           Al  tau( 203) = (   0.1347819   0.1514827   0.6826363  )
       204           Al  tau( 204) = (   0.2585522   0.1583333   0.8383641  )
       205           Al  tau( 205) = (  -0.1419069   0.1444697   0.1399557  )
       206           Al  tau( 206) = (  -0.1431611   0.1509892   0.4090070  )
       207           Al  tau( 207) = (  -0.0049440   0.1451898   0.5507432  )
       208           Al  tau( 208) = (   0.2770258   0.1488431   0.5529645  )
       209           Al  tau( 209) = (   0.4137201   0.1514033   0.6864030  )
       210           Al  tau( 210) = (  -0.2818150   1.7735721   0.1348770  )
       211           Al  tau( 211) = (   0.0000568   1.7698461   0.1372195  )
       212           Al  tau( 212) = (   0.1369565   1.7672729   0.2705966  )
       213           Al  tau( 213) = (   0.1362170   1.7742135   0.5557625  )
       214           Al  tau( 214) = (   0.1347500   1.7678133   0.8251042  )
       215           Al  tau( 215) = (   0.4141385   1.7705106   0.8308910  )
       216           Al  tau( 216) = (  -0.1421814   1.7672527   0.2668196  )
       217           Al  tau( 217) = (  -0.0181659   1.7611994   0.4220140  )
       218           Al  tau( 218) = (   0.2610933   1.7826114   0.4150095  )
       219           Al  tau( 219) = (  -0.0095440   1.7512240   0.6849837  )
       220           Al  tau( 220) = (   0.2773071   1.7652975   0.6948507  )

   Crystallographic axes

     site n.     atom                  positions (cryst. coord.)
         1           Mg  tau(   1) = (  0.0067600  0.1127545  0.9708415  )
         2           Mg  tau(   2) = (  0.0822875  0.1563342  0.3500587  )
         3           Mg  tau(   3) = (  0.1576628  0.1572315  0.8876779  )
         4           Mg  tau(   4) = (  0.3530119  0.1088794  0.0756817  )
         5           Mg  tau(   5) = (  0.4278823  0.1078303  0.6152107  )
         6           Si  tau(   6) = (  0.0621311  0.1054168  0.6246357  )
         7           Si  tau(   7) = (  0.1895036  0.1074866  0.2014959  )
         8           Al  tau(   8) = (  0.2309763  0.1035523  0.6176579  )
         9           Al  tau(   9) = (  0.2826434  0.1578359  0.3549669  )
        10           Si  tau(  10) = (  0.3190767  0.1580833  0.7605406  )
        11           Si  tau(  11) = (  0.4456847  0.1590851  0.3235247  )
        12           Mg  tau(  12) = (  0.5043569  0.1594207  0.9833196  )
        13           Mg  tau(  13) = (  0.5753369  0.1083848  0.3543603  )
        14           Mg  tau(  14) = (  0.6530080  0.1066194  0.8952529  )
        15           Mg  tau(  15) = (  0.8527999  0.1542172  0.0713639  )
        16           Mg  tau(  16) = (  0.9253407  0.1554502  0.5982205  )
        17           Si  tau(  17) = (  0.5647273  0.1577529  0.6461323  )
        18           Si  tau(  18) = (  0.6905998  0.1569413  0.2014437  )
        19           Al  tau(  19) = (  0.7272896  0.1557090  0.6083167  )
        20           Al  tau(  20) = (  0.7736278  0.1026411  0.3487991  )
        21           Si  tau(  21) = (  0.8188831  0.1038535  0.7630357  )
        22           Si  tau(  22) = (  0.9398070  0.0964129  0.2965219  )
        23           Mg  tau(  23) = (  0.0041164  0.2047839  0.9778224  )
        24           Mg  tau(  24) = (  0.0769570  0.2580613  0.3348873  )
        25           Mg  tau(  25) = (  0.1541778  0.2589950  0.8907849  )
        26           Mg  tau(  26) = (  0.3542702  0.2092197  0.0690191  )
        27           Mg  tau(  27) = (  0.4309983  0.2092751  0.6238986  )
        28           Si  tau(  28) = (  0.0643241  0.2079860  0.6399711  )
        29           Si  tau(  29) = (  0.1906630  0.2086953  0.1973689  )
        30           Al  tau(  30) = (  0.2268350  0.2088913  0.6049063  )
        31           Al  tau(  31) = (  0.2824642  0.2596006  0.3562558  )
        32           Si  tau(  32) = (  0.3185399  0.2598775  0.7637233  )
        33           Si  tau(  33) = (  0.4450113  0.2601544  0.3215269  )
        34           Mg  tau(  34) = (  0.5051004  0.2595122  0.9824072  )
        35           Mg  tau(  35) = (  0.5794717  0.2090232  0.3426418  )
        36           Mg  tau(  36) = (  0.6558514  0.2082277  0.8945343  )
        37           Mg  tau(  37) = (  0.8552772  0.2576898  0.0700920  )
        38           Mg  tau(  38) = (  0.9320757  0.2580706  0.6262445  )
        39           Si  tau(  39) = (  0.5650712  0.2593076  0.6429021  )
        40           Si  tau(  40) = (  0.6915412  0.2589708  0.1999254  )
        41           Al  tau(  41) = (  0.7275160  0.2585917  0.6072330  )
        42           Al  tau(  42) = (  0.7826659  0.2077542  0.3564405  )
        43           Si  tau(  43) = (  0.8182712  0.2070768  0.7631398  )
        44           Si  tau(  44) = (  0.9447184  0.2060218  0.3177989  )
        45           Mg  tau(  45) = (  0.0046416  0.3097159  0.9814951  )
        46           Mg  tau(  46) = (  0.0782578  0.3604497  0.3402211  )
        47           Mg  tau(  47) = (  0.1548860  0.3609296  0.8927999  )
        48           Mg  tau(  48) = (  0.3545169  0.3108748  0.0710670  )
        49           Mg  tau(  49) = (  0.4313410  0.3105208  0.6246416  )
        50           Si  tau(  50) = (  0.0643454  0.3098859  0.6420521  )
        51           Si  tau(  51) = (  0.1906807  0.3103251  0.1989743  )
        52           Al  tau(  52) = (  0.2263747  0.3104113  0.6058385  )
        53           Al  tau(  53) = (  0.2829093  0.3612307  0.3578133  )
        54           Si  tau(  54) = (  0.3185347  0.3614121  0.7645410  )
        55           Si  tau(  55) = (  0.4448852  0.3621725  0.3212126  )
        56           Mg  tau(  56) = (  0.5046039  0.3612570  0.9818104  )
        57           Mg  tau(  57) = (  0.5782255  0.3105123  0.3400023  )
        58           Mg  tau(  58) = (  0.6550842  0.3100240  0.8929554  )
        59           Mg  tau(  59) = (  0.8546214  0.3600619  0.0713046  )
        60           Mg  tau(  60) = (  0.9312204  0.3604171  0.6242994  )
        61           Si  tau(  61) = (  0.5643455  0.3610589  0.6424287  )
        62           Si  tau(  62) = (  0.6907220  0.3606146  0.1993110  )
        63           Al  tau(  63) = (  0.7263803  0.3605197  0.6061977  )
        64           Al  tau(  64) = (  0.7829786  0.3096908  0.3578623  )
        65           Si  tau(  65) = (  0.8186342  0.3095328  0.7645321  )
        66           Si  tau(  66) = (  0.9449013  0.3087172  0.3208842  )
        67           Mg  tau(  67) = (  0.0049785  0.4114584  0.9825988  )
        68           Mg  tau(  68) = (  0.0794573  0.4619244  0.3433497  )
        69           Mg  tau(  69) = (  0.1558188  0.4627142  0.8953112  )
        70           Mg  tau(  70) = (  0.3551705  0.4131965  0.0706395  )
        71           Mg  tau(  71) = (  0.4318916  0.4127961  0.6265115  )
        72           Si  tau(  72) = (  0.0649413  0.4116967  0.6431332  )
        73           Si  tau(  73) = (  0.1914461  0.4119674  0.2003890  )
        74           Al  tau(  74) = (  0.2274232  0.4123611  0.6077092  )
        75           Al  tau(  75) = (  0.2826325  0.4631854  0.3572399  )
        76           Si  tau(  76) = (  0.3182514  0.4638495  0.7639385  )
        77           Si  tau(  77) = (  0.4446161  0.4648910  0.3184948  )
        78           Mg  tau(  78) = (  0.5041191  0.4659886  0.9786383  )
        79           Mg  tau(  79) = (  0.5770051  0.4128164  0.3359059  )
        80           Mg  tau(  80) = (  0.6541281  0.4119528  0.8914658  )
        81           Mg  tau(  81) = (  0.8540736  0.4617465  0.0693166  )
        82           Mg  tau(  82) = (  0.9307078  0.4616865  0.6237976  )
        83           Si  tau(  83) = (  0.5642390  0.4629512  0.6405479  )
        84           Si  tau(  84) = (  0.6906002  0.4622871  0.1980851  )
        85           Al  tau(  85) = (  0.7267204  0.4620911  0.6054644  )
        86           Al  tau(  86) = (  0.7823683  0.4113604  0.3565726  )
        87           Si  tau(  87) = (  0.8184117  0.4110828  0.7640073  )
        88           Si  tau(  88) = (  0.9448962  0.4108256  0.3217128  )
        89           Mg  tau(  89) = (  0.0044116  0.5114166  0.9837524  )
        90           Mg  tau(  90) = (  0.0755534  0.5625331  0.3541047  )
        91           Mg  tau(  91) = (  0.1532975  0.5642859  0.8954566  )
        92           Mg  tau(  92) = (  0.3529263  0.5167075  0.0719690  )
        93           Mg  tau(  93) = (  0.4256247  0.5154703  0.5996885  )
        94           Si  tau(  94) = (  0.0647522  0.5131631  0.6465353  )
        95           Si  tau(  95) = (  0.1906019  0.5139976  0.2020910  )
        96           Al  tau(  96) = (  0.2273782  0.5152413  0.6090234  )
        97           Al  tau(  97) = (  0.2740368  0.5682577  0.3491635  )
        98           Si  tau(  98) = (  0.3191772  0.5670790  0.7634041  )
        99           Si  tau(  99) = (  0.4403156  0.5745194  0.2977940  )
       100           Mg  tau( 100) = (  0.5067435  0.5582351  0.9713340  )
       101           Mg  tau( 101) = (  0.5821619  0.5146506  0.3504713  )
       102           Mg  tau( 102) = (  0.6576480  0.5136924  0.8884915  )
       103           Mg  tau( 103) = (  0.8529969  0.5621184  0.0758366  )
       104           Mg  tau( 104) = (  0.9282979  0.5630584  0.6161179  )
       105           Si  tau( 105) = (  0.5625392  0.5655405  0.6257768  )
       106           Si  tau( 106) = (  0.6894282  0.5635348  0.2013120  )
       107           Al  tau( 107) = (  0.7312909  0.5673736  0.6173463  )
       108           Al  tau( 108) = (  0.7825746  0.5131943  0.3553578  )
       109           Si  tau( 109) = (  0.8191322  0.5128681  0.7610075  )
       110           Si  tau( 110) = (  0.9456310  0.5118811  0.3237982  )
       111           Al  tau( 111) = (  0.0414479  0.7154422  0.7321698  )
       112           Al  tau( 112) = (  0.9955444  0.6670195  0.0042566  )
       113           Al  tau( 113) = (  0.1776494  0.6672259  0.9133949  )
       114           Al  tau( 114) = (  0.1330018  0.7148697  0.1872664  )
       115           Al  tau( 115) = (  0.3139905  0.7149994  0.0995969  )
       116           Al  tau( 116) = (  0.2702254  0.6652941  0.3727587  )
       117           Al  tau( 117) = (  0.4474898  0.6673269  0.2925636  )
       118           Al  tau( 118) = (  0.5875159  0.7143690  0.4616647  )
       119           Al  tau( 119) = (  0.7249002  0.6662103  0.6457413  )
       120           Al  tau( 120) = (  0.9045265  0.6669962  0.5490797  )
       121           Al  tau( 121) = (  0.8599558  0.7150518  0.8252472  )
       122           Al  tau( 122) = (  0.9496672  0.7152124  0.2781410  )
       123           Al  tau( 123) = (  0.0864250  0.6674124  0.4578852  )
       124           Al  tau( 124) = (  0.2230367  0.7151764  0.6402137  )
       125           Al  tau( 125) = (  0.4053375  0.7150148  0.5578206  )
       126           Al  tau( 126) = (  0.3567346  0.6669265  0.8242754  )
       127           Al  tau( 127) = (  0.5440328  0.6659662  0.7371980  )
       128           Al  tau( 128) = (  0.4963657  0.7142076  0.0105641  )
       129           Al  tau( 129) = (  0.6783182  0.7146213  0.9152194  )
       130           Al  tau( 130) = (  0.6372548  0.6663265  0.1883741  )
       131           Al  tau( 131) = (  0.7691742  0.7148302  0.3708607  )
       132           Al  tau( 132) = (  0.8134299  0.6656649  0.0932610  )
       133           Al  tau( 133) = (  0.0416076  0.8114130  0.7349135  )
       134           Al  tau( 134) = (  0.9962919  0.7632067  0.0073500  )
       135           Al  tau( 135) = (  0.1780644  0.7632654  0.9163841  )
       136           Al  tau( 136) = (  0.1326439  0.8114481  0.1894715  )
       137           Al  tau( 137) = (  0.3145190  0.8114056  0.0987061  )
       138           Al  tau( 138) = (  0.2691731  0.7632618  0.3717181  )
       139           Al  tau( 139) = (  0.4511718  0.7629960  0.2816741  )
       140           Al  tau( 140) = (  0.5869932  0.8112101  0.4622280  )
       141           Al  tau( 141) = (  0.7233176  0.7630967  0.6432118  )
       142           Al  tau( 142) = (  0.9049644  0.7632637  0.5522949  )
       143           Al  tau( 143) = (  0.8597571  0.8113878  0.8259405  )
       144           Al  tau( 144) = (  0.9506846  0.8114515  0.2803582  )
       145           Al  tau( 145) = (  0.0868522  0.7633027  0.4609119  )
       146           Al  tau( 146) = (  0.2235303  0.8113902  0.6442397  )
       147           Al  tau( 147) = (  0.4054401  0.8112515  0.5536849  )
       148           Al  tau( 148) = (  0.3601069  0.7631160  0.8280736  )
       149           Al  tau( 149) = (  0.5417909  0.7628508  0.7354670  )
       150           Al  tau( 150) = (  0.4962516  0.8112798  0.0078866  )
       151           Al  tau( 151) = (  0.6777865  0.8113035  0.9166346  )
       152           Al  tau( 152) = (  0.6324941  0.7629796  0.1889421  )
       153           Al  tau( 153) = (  0.7687681  0.8113744  0.3713662  )
       154           Al  tau( 154) = (  0.8140033  0.7632249  0.0975264  )
       155           Al  tau( 155) = (  0.0416139  0.9080845  0.7363237  )
       156           Al  tau( 156) = (  0.9961925  0.8596858  0.0083525  )
       157           Al  tau( 157) = (  0.1777554  0.8596424  0.9169724  )
       158           Al  tau( 158) = (  0.1322804  0.9079526  0.1896994  )
       159           Al  tau( 159) = (  0.3137818  0.9076996  0.0981003  )
       160           Al  tau( 160) = (  0.2687914  0.8595565  0.3716117  )
       161           Al  tau( 161) = (  0.4506537  0.8594854  0.2804252  )
       162           Al  tau( 162) = (  0.5866812  0.9076477  0.4612239  )
       163           Al  tau( 163) = (  0.7233708  0.8595439  0.6441191  )
       164           Al  tau( 164) = (  0.9052643  0.8596979  0.5539357  )
       165           Al  tau( 165) = (  0.8599157  0.9078090  0.8286856  )
       166           Al  tau( 166) = (  0.9509641  0.9079312  0.2823879  )
       167           Al  tau( 167) = (  0.0869809  0.8597296  0.4626933  )
       168           Al  tau( 168) = (  0.2231571  0.9078069  0.6438591  )
       169           Al  tau( 169) = (  0.4048056  0.9076631  0.5528003  )
       170           Al  tau( 170) = (  0.3597404  0.8595504  0.8261065  )
       171           Al  tau( 171) = (  0.5415766  0.8595302  0.7348291  )
       172           Al  tau( 172) = (  0.4961270  0.9077527  0.0078068  )
       173           Al  tau( 173) = (  0.6779092  0.9076803  0.9167088  )
       174           Al  tau( 174) = (  0.6325451  0.8595032  0.1893615  )
       175           Al  tau( 175) = (  0.7689804  0.9076692  0.3720635  )
       176           Al  tau( 176) = (  0.8144030  0.8595320  0.0989347  )
       177           Al  tau( 177) = (  0.0437700  0.0050036  0.7387253  )
       178           Al  tau( 178) = (  0.9960358  0.9567318  0.0116818  )
       179           Al  tau( 179) = (  0.1780088  0.9562921  0.9162442  )
       180           Al  tau( 180) = (  0.1369232  0.0045743  0.1896271  )
       181           Al  tau( 181) = (  0.3130895  0.0052698  0.0944501  )
       182           Al  tau( 182) = (  0.2688543  0.9561058  0.3718924  )
       183           Al  tau( 183) = (  0.4492773  0.9557547  0.2789385  )
       184           Al  tau( 184) = (  0.5860603  0.0035227  0.4585454  )
       185           Al  tau( 185) = (  0.7228838  0.9557740  0.6407630  )
       186           Al  tau( 186) = (  0.9051098  0.9559398  0.5587315  )
       187           Al  tau( 187) = (  0.8565636  0.0040443  0.8250534  )
       188           Al  tau( 188) = (  0.9472444  0.0036452  0.2940685  )
       189           Al  tau( 189) = (  0.0872547  0.9565622  0.4630382  )
       190           Al  tau( 190) = (  0.2246233  0.0046785  0.6471999  )
       191           Al  tau( 191) = (  0.4041558  0.0039431  0.5502047  )
       192           Al  tau( 192) = (  0.3596797  0.9558574  0.8261837  )
       193           Al  tau( 193) = (  0.5412315  0.9555278  0.7328370  )
       194           Al  tau( 194) = (  0.4952120  0.0039001  0.0051393  )
       195           Al  tau( 195) = (  0.6773726  0.0036788  0.9140119  )
       196           Al  tau( 196) = (  0.6327452  0.9560648  0.1878435  )
       197           Al  tau( 197) = (  0.7699769  0.0056731  0.3735701  )
       198           Al  tau( 198) = (  0.8138190  0.9559424  0.1004606  )
       199           Al  tau( 199) = (  0.9935317  0.0476787  0.0327699  )
       200           Al  tau( 200) = (  0.1702577  0.0586639  0.9183068  )
       201           Al  tau( 201) = (  0.2737552  0.0536685  0.3667124  )
       202           Al  tau( 202) = (  0.4523898  0.0518475  0.2758602  )
       203           Al  tau( 203) = (  0.7154368  0.0529666  0.6299402  )
       204           Al  tau( 204) = (  0.9091380  0.0553619  0.5907019  )
       205           Al  tau( 205) = (  0.0911091  0.0505144  0.4625805  )
       206           Al  tau( 206) = (  0.3552648  0.0527940  0.8178028  )
       207           Al  tau( 207) = (  0.5399430  0.0507662  0.7318079  )
       208           Al  tau( 208) = (  0.6345506  0.0520436  0.1801803  )
       209           Al  tau( 209) = (  0.8105702  0.0529388  0.0863010  )
       210           Al  tau( 210) = (  0.0402563  0.6201371  0.7310740  )
       211           Al  tau( 211) = (  0.1349510  0.6188343  0.1797980  )
       212           Al  tau( 212) = (  0.3109776  0.6179346  0.0854344  )
       213           Al  tau( 213) = (  0.5911480  0.6203614  0.4607725  )
       214           Al  tau( 214) = (  0.8555195  0.6181235  0.8167940  )
       215           Al  tau( 215) = (  0.9527871  0.6190666  0.2749178  )
       216           Al  tau( 216) = (  0.2157685  0.6179275  0.6294528  )
       217           Al  tau( 217) = (  0.4090255  0.6158109  0.5890328  )
       218           Al  tau( 218) = (  0.4936727  0.6232977  0.0306400  )
       219           Al  tau( 219) = (  0.6704382  0.6123230  0.9168584  )
       220           Al  tau( 220) = (  0.7741640  0.6172439  0.3656553  )

     number of k points=    80  Methfessel-Paxton smearing, width (Ry)=  0.0441
                       cart. coord. in units 2pi/alat
        k(    1) = (   0.0000000   0.0000000   0.0000000), wk =   0.0128205
        k(    2) = (  -0.1512819   0.0000000   0.1008546), wk =   0.0256410
        k(    3) = (  -0.3025637   0.0000000   0.2017092), wk =   0.0256410
        k(    4) = (  -0.4538456   0.0000000   0.3025637), wk =   0.0256410
        k(    5) = (  -0.6051275   0.0000000   0.4034183), wk =   0.0256410
        k(    6) = (  -0.7564093   0.0000000   0.5042729), wk =   0.0256410
        k(    7) = (  -0.9076912   0.0000000   0.6051275), wk =   0.0256410
        k(    8) = (   0.0000000  -0.1748271   0.0000000), wk =   0.0128205
        k(    9) = (  -0.1512819  -0.1748271   0.1008546), wk =   0.0256410
        k(   10) = (  -0.3025637  -0.1748271   0.2017092), wk =   0.0256410
        k(   11) = (  -0.4538456  -0.1748271   0.3025637), wk =   0.0256410
        k(   12) = (  -0.6051275  -0.1748271   0.4034183), wk =   0.0256410
        k(   13) = (  -0.7564093  -0.1748271   0.5042729), wk =   0.0256410
        k(   14) = (  -0.9076912  -0.1748271   0.6051275), wk =   0.0256410
        k(   15) = (   0.0546296   0.0000000   0.1638887), wk =   0.0256410
        k(   16) = (  -0.0966523   0.0000000   0.2647433), wk =   0.0256410
        k(   17) = (  -0.2479342   0.0000000   0.3655979), wk =   0.0256410
        k(   18) = (  -0.3992160   0.0000000   0.4664524), wk =   0.0256410
        k(   19) = (  -0.5504979   0.0000000   0.5673070), wk =   0.0256410
        k(   20) = (  -0.7017798   0.0000000   0.6681616), wk =   0.0256410
        k(   21) = (  -0.8530616   0.0000000   0.7690162), wk =   0.0256410
        k(   22) = (   0.9623207   0.0000000  -0.4412388), wk =   0.0256410
        k(   23) = (   0.8110389   0.0000000  -0.3403842), wk =   0.0256410
        k(   24) = (   0.6597570   0.0000000  -0.2395296), wk =   0.0256410
        k(   25) = (   0.5084751   0.0000000  -0.1386750), wk =   0.0256410
        k(   26) = (   0.3571933   0.0000000  -0.0378205), wk =   0.0256410
        k(   27) = (   0.2059114   0.0000000   0.0630341), wk =   0.0256410
        k(   28) = (   0.0546296  -0.1748271   0.1638887), wk =   0.0256410
        k(   29) = (  -0.0966523  -0.1748271   0.2647433), wk =   0.0256410
        k(   30) = (  -0.2479342  -0.1748271   0.3655979), wk =   0.0256410
        k(   31) = (  -0.3992160  -0.1748271   0.4664524), wk =   0.0256410
        k(   32) = (  -0.5504979  -0.1748271   0.5673070), wk =   0.0256410
        k(   33) = (  -0.7017798  -0.1748271   0.6681616), wk =   0.0256410
        k(   34) = (  -0.8530616  -0.1748271   0.7690162), wk =   0.0256410
        k(   35) = (   0.9623207  -0.1748271  -0.4412388), wk =   0.0256410
        k(   36) = (   0.8110389  -0.1748271  -0.3403842), wk =   0.0256410
        k(   37) = (   0.6597570  -0.1748271  -0.2395296), wk =   0.0256410
        k(   38) = (   0.5084751  -0.1748271  -0.1386750), wk =   0.0256410
        k(   39) = (   0.3571933  -0.1748271  -0.0378205), wk =   0.0256410
        k(   40) = (   0.2059114  -0.1748271   0.0630341), wk =   0.0256410
        k(   41) = (   0.1092591   0.0000000   0.3277774), wk =   0.0256410
        k(   42) = (  -0.0420227   0.0000000   0.4286320), wk =   0.0256410
        k(   43) = (  -0.1933046   0.0000000   0.5294866), wk =   0.0256410
        k(   44) = (  -0.3445865   0.0000000   0.6303411), wk =   0.0256410
        k(   45) = (  -0.4958683   0.0000000   0.7311957), wk =   0.0256410
        k(   46) = (  -0.6471502   0.0000000   0.8320503), wk =   0.0256410
        k(   47) = (  -0.7984321   0.0000000   0.9329049), wk =   0.0256410
        k(   48) = (   1.0169503   0.0000000  -0.2773501), wk =   0.0256410
        k(   49) = (   0.8656684   0.0000000  -0.1764955), wk =   0.0256410
        k(   50) = (   0.7143866   0.0000000  -0.0756409), wk =   0.0256410
        k(   51) = (   0.5631047   0.0000000   0.0252137), wk =   0.0256410
        k(   52) = (   0.4118228   0.0000000   0.1260682), wk =   0.0256410
        k(   53) = (   0.2605410   0.0000000   0.2269228), wk =   0.0256410
        k(   54) = (   0.1092591  -0.1748271   0.3277774), wk =   0.0256410
        k(   55) = (  -0.0420227  -0.1748271   0.4286320), wk =   0.0256410
        k(   56) = (  -0.1933046  -0.1748271   0.5294866), wk =   0.0256410
        k(   57) = (  -0.3445865  -0.1748271   0.6303411), wk =   0.0256410
        k(   58) = (  -0.4958683  -0.1748271   0.7311957), wk =   0.0256410
        k(   59) = (  -0.6471502  -0.1748271   0.8320503), wk =   0.0256410
        k(   60) = (  -0.7984321  -0.1748271   0.9329049), wk =   0.0256410
        k(   61) = (   1.0169503  -0.1748271  -0.2773501), wk =   0.0256410
        k(   62) = (   0.8656684  -0.1748271  -0.1764955), wk =   0.0256410
        k(   63) = (   0.7143866  -0.1748271  -0.0756409), wk =   0.0256410
        k(   64) = (   0.5631047  -0.1748271   0.0252137), wk =   0.0256410
        k(   65) = (   0.4118228  -0.1748271   0.1260682), wk =   0.0256410
        k(   66) = (   0.2605410  -0.1748271   0.2269228), wk =   0.0256410
        k(   67) = (  -0.1638887   0.0000000  -0.4916661), wk =   0.0128205
        k(   68) = (  -0.3151705   0.0000000  -0.3908115), wk =   0.0256410
        k(   69) = (  -0.4664524   0.0000000  -0.2899569), wk =   0.0256410
        k(   70) = (  -0.6177343   0.0000000  -0.1891024), wk =   0.0256410
        k(   71) = (  -0.7690161   0.0000000  -0.0882478), wk =   0.0256410
        k(   72) = (  -0.9202980   0.0000000   0.0126068), wk =   0.0256410
        k(   73) = (  -1.0715799   0.0000000   0.1134614), wk =   0.0256410
        k(   74) = (  -0.1638887  -0.1748271  -0.4916661), wk =   0.0128205
        k(   75) = (  -0.3151705  -0.1748271  -0.3908115), wk =   0.0256410
        k(   76) = (  -0.4664524  -0.1748271  -0.2899569), wk =   0.0256410
        k(   77) = (  -0.6177343  -0.1748271  -0.1891024), wk =   0.0256410
        k(   78) = (  -0.7690161  -0.1748271  -0.0882478), wk =   0.0256410
        k(   79) = (  -0.9202980  -0.1748271   0.0126068), wk =   0.0256410
        k(   80) = (  -1.0715799  -0.1748271   0.1134614), wk =   0.0256410

                       cryst. coord.
        k(    1) = (   0.0000000   0.0000000   0.0000000), wk =   0.0128205
        k(    2) = (   0.0000000   0.0000000   0.0769231), wk =   0.0256410
        k(    3) = (   0.0000000   0.0000000   0.1538462), wk =   0.0256410
        k(    4) = (   0.0000000   0.0000000   0.2307692), wk =   0.0256410
        k(    5) = (   0.0000000   0.0000000   0.3076923), wk =   0.0256410
        k(    6) = (  -0.0000000   0.0000000   0.3846154), wk =   0.0256410
        k(    7) = (   0.0000000   0.0000000   0.4615385), wk =   0.0256410
        k(    8) = (   0.0000000  -0.5000000   0.0000000), wk =   0.0128205
        k(    9) = (   0.0000000  -0.5000000   0.0769231), wk =   0.0256410
        k(   10) = (   0.0000000  -0.5000000   0.1538462), wk =   0.0256410
        k(   11) = (   0.0000000  -0.5000000   0.2307692), wk =   0.0256410
        k(   12) = (   0.0000000  -0.5000000   0.3076923), wk =   0.0256410
        k(   13) = (  -0.0000000  -0.5000000   0.3846154), wk =   0.0256410
        k(   14) = (   0.0000000  -0.5000000   0.4615385), wk =   0.0256410
        k(   15) = (   0.1666667   0.0000000   0.0000000), wk =   0.0256410
        k(   16) = (   0.1666667   0.0000000   0.0769231), wk =   0.0256410
        k(   17) = (   0.1666667   0.0000000   0.1538462), wk =   0.0256410
        k(   18) = (   0.1666667   0.0000000   0.2307692), wk =   0.0256410
        k(   19) = (   0.1666667   0.0000000   0.3076923), wk =   0.0256410
        k(   20) = (   0.1666667   0.0000000   0.3846154), wk =   0.0256410
        k(   21) = (   0.1666667   0.0000000   0.4615385), wk =   0.0256410
        k(   22) = (   0.1666667   0.0000000  -0.4615385), wk =   0.0256410
        k(   23) = (   0.1666667   0.0000000  -0.3846154), wk =   0.0256410
        k(   24) = (   0.1666667   0.0000000  -0.3076923), wk =   0.0256410
        k(   25) = (   0.1666667   0.0000000  -0.2307692), wk =   0.0256410
        k(   26) = (   0.1666667   0.0000000  -0.1538462), wk =   0.0256410
        k(   27) = (   0.1666667   0.0000000  -0.0769231), wk =   0.0256410
        k(   28) = (   0.1666667  -0.5000000   0.0000000), wk =   0.0256410
        k(   29) = (   0.1666667  -0.5000000   0.0769231), wk =   0.0256410
        k(   30) = (   0.1666667  -0.5000000   0.1538462), wk =   0.0256410
        k(   31) = (   0.1666667  -0.5000000   0.2307692), wk =   0.0256410
        k(   32) = (   0.1666667  -0.5000000   0.3076923), wk =   0.0256410
        k(   33) = (   0.1666667  -0.5000000   0.3846154), wk =   0.0256410
        k(   34) = (   0.1666667  -0.5000000   0.4615385), wk =   0.0256410
        k(   35) = (   0.1666667  -0.5000000  -0.4615385), wk =   0.0256410
        k(   36) = (   0.1666667  -0.5000000  -0.3846154), wk =   0.0256410
        k(   37) = (   0.1666667  -0.5000000  -0.3076923), wk =   0.0256410
        k(   38) = (   0.1666667  -0.5000000  -0.2307692), wk =   0.0256410
        k(   39) = (   0.1666667  -0.5000000  -0.1538462), wk =   0.0256410
        k(   40) = (   0.1666667  -0.5000000  -0.0769231), wk =   0.0256410
        k(   41) = (   0.3333333   0.0000000   0.0000000), wk =   0.0256410
        k(   42) = (   0.3333333   0.0000000   0.0769231), wk =   0.0256410
        k(   43) = (   0.3333333   0.0000000   0.1538462), wk =   0.0256410
        k(   44) = (   0.3333333   0.0000000   0.2307692), wk =   0.0256410
        k(   45) = (   0.3333333   0.0000000   0.3076923), wk =   0.0256410
        k(   46) = (   0.3333333   0.0000000   0.3846154), wk =   0.0256410
        k(   47) = (   0.3333333   0.0000000   0.4615385), wk =   0.0256410
        k(   48) = (   0.3333333   0.0000000  -0.4615385), wk =   0.0256410
        k(   49) = (   0.3333333   0.0000000  -0.3846154), wk =   0.0256410
        k(   50) = (   0.3333333   0.0000000  -0.3076923), wk =   0.0256410
        k(   51) = (   0.3333333   0.0000000  -0.2307692), wk =   0.0256410
        k(   52) = (   0.3333333   0.0000000  -0.1538462), wk =   0.0256410
        k(   53) = (   0.3333333   0.0000000  -0.0769231), wk =   0.0256410
        k(   54) = (   0.3333333  -0.5000000   0.0000000), wk =   0.0256410
        k(   55) = (   0.3333333  -0.5000000   0.0769231), wk =   0.0256410
        k(   56) = (   0.3333333  -0.5000000   0.1538462), wk =   0.0256410
        k(   57) = (   0.3333333  -0.5000000   0.2307692), wk =   0.0256410
        k(   58) = (   0.3333333  -0.5000000   0.3076923), wk =   0.0256410
        k(   59) = (   0.3333333  -0.5000000   0.3846154), wk =   0.0256410
        k(   60) = (   0.3333333  -0.5000000   0.4615385), wk =   0.0256410
        k(   61) = (   0.3333333  -0.5000000  -0.4615385), wk =   0.0256410
        k(   62) = (   0.3333333  -0.5000000  -0.3846154), wk =   0.0256410
        k(   63) = (   0.3333333  -0.5000000  -0.3076923), wk =   0.0256410
        k(   64) = (   0.3333333  -0.5000000  -0.2307692), wk =   0.0256410
        k(   65) = (   0.3333333  -0.5000000  -0.1538462), wk =   0.0256410
        k(   66) = (   0.3333333  -0.5000000  -0.0769231), wk =   0.0256410
        k(   67) = (  -0.5000000   0.0000000   0.0000000), wk =   0.0128205
        k(   68) = (  -0.5000000   0.0000000   0.0769231), wk =   0.0256410
        k(   69) = (  -0.5000000   0.0000000   0.1538462), wk =   0.0256410
        k(   70) = (  -0.5000000   0.0000000   0.2307692), wk =   0.0256410
        k(   71) = (  -0.5000000   0.0000000   0.3076923), wk =   0.0256410
        k(   72) = (  -0.5000000   0.0000000   0.3846154), wk =   0.0256410
        k(   73) = (  -0.5000000   0.0000000   0.4615385), wk =   0.0256410
        k(   74) = (  -0.5000000  -0.5000000   0.0000000), wk =   0.0128205
        k(   75) = (  -0.5000000  -0.5000000   0.0769231), wk =   0.0256410
        k(   76) = (  -0.5000000  -0.5000000   0.1538462), wk =   0.0256410
        k(   77) = (  -0.5000000  -0.5000000   0.2307692), wk =   0.0256410
        k(   78) = (  -0.5000000  -0.5000000   0.3076923), wk =   0.0256410
        k(   79) = (  -0.5000000  -0.5000000   0.3846154), wk =   0.0256410
        k(   80) = (  -0.5000000  -0.5000000   0.4615385), wk =   0.0256410

     Dense  grid:  3452559 G-vectors     FFT dimensions: ( 180, 512,  80)

     Smooth grid:   873713 G-vectors     FFT dimensions: ( 120, 320,  50)

     Dynamical RAM for                 wfc:      72.19 MB

     Dynamical RAM for     wfc (w. buffer):    1516.00 MB

     Dynamical RAM for           str. fact:      17.56 MB

     Dynamical RAM for           local pot:       0.00 MB

     Dynamical RAM for          nlocal pot:     640.46 MB

     Dynamical RAM for                qrad:      21.15 MB

     Dynamical RAM for          rho,v,vnew:      36.54 MB

     Dynamical RAM for               rhoin:      12.18 MB

     Dynamical RAM for            rho*nmix:      93.66 MB

     Dynamical RAM for           G-vectors:      22.69 MB

     Dynamical RAM for          h,s,v(r/c):      27.85 MB

     Dynamical RAM for          <psi|beta>:      20.59 MB

     Dynamical RAM for                 psi:     288.76 MB

     Dynamical RAM for                hpsi:     288.76 MB

     Dynamical RAM for                spsi:     288.76 MB

     Dynamical RAM for      wfcinit/wfcrot:     343.52 MB

     Dynamical RAM for           addusdens:     466.82 MB

     Dynamical RAM for          addusforce:    1238.88 MB

     Dynamical RAM for         addusstress:     296.33 MB

     Estimated static dynamical RAM per process >       2.36 GB

     Estimated max dynamical RAM per process >       3.57 GB

     Estimated total dynamical RAM >     128.47 GB

     Initial potential from superposition of free atoms

     starting charge  649.63371, renormalised to  650.00000
     Starting wfcs are  880 randomized atomic wfcs
