
     Program PWSCF v.6.3 starts on 22Feb2020 at 14:12: 6 

     This program is part of the open-source Quantum ESPRESSO suite
     for quantum simulation of materials; please cite
         "P. Giannozzi et al., J. Phys.:Condens. Matter 21 395502 (2009);
         "P. Giannozzi et al., J. Phys.:Condens. Matter 29 465901 (2017);
          URL http://www.quantum-espresso.org", 
     in publications or presentations arising from this work. More details at
     http://www.quantum-espresso.org/quote

 *** WARNING: using old-style file format, will disappear from next version ***

     Parallel version (MPI & OpenMP), running on      36 processor cores
     Number of MPI processes:                36
     Threads/MPI process:                     1

     MPI processes distributed on     1 nodes
     K-points division:     npool     =       4
     R & G space division:  proc/nbgrp/npool/nimage =       9
     Reading input from aiida.in
Warning: card &IONS ignored
Warning: card   !PRESS_CONV_THR = 0.05                 ! JUST FOR VOLUME RELAXATIONS ignored
Warning: card / ignored

     Current dimensions of program PWSCF are:
     Max number of different atomic species (ntypx) = 10
     Max number of k-points (npk) =  40000
     Max angular momentum in pseudopotentials (lmaxx) =  3
               file Al.pbe-n-kjpaw_psl.1.0.0.UPF: wavefunction(s)  3S 3P renormalized
               file Mg.pbe-n-kjpaw_psl.0.3.0.UPF: wavefunction(s)  3S renormalized

     Subspace diagonalization in iterative solution of the eigenvalue problem:
     one sub-group per band group will be used
     scalapack distributed-memory algorithm (size of sub-group:  2*  2 procs)

 
     Parallelization info
     --------------------
     sticks:   dense  smooth     PW     G-vecs:    dense   smooth      PW
     Min         751     300     87                39259     9926    1549
     Max         751     301     88                39261     9928    1550
     Sum        6759    2705    787               353339    89341   13943
 


     bravais-lattice index     =            0
     lattice parameter (alat)  =      27.6424  a.u.
     unit-cell volume          =    2614.7506 (a.u.)^3
     number of atoms/cell      =           22
     number of atomic types    =            3
     number of electrons       =        66.00
     number of Kohn-Sham states=           40
     kinetic-energy cutoff     =      40.0000  Ry
     charge density cutoff     =     400.0000  Ry
     convergence threshold     =      1.0E-12
     mixing beta               =       0.4000
     number of iterations used =            8  local-TF  mixing
     Exchange-correlation      = PBE ( 1  4  3  4 0 0)

     celldm(1)=  27.642385  celldm(2)=   0.000000  celldm(3)=   0.000000
     celldm(4)=   0.000000  celldm(5)=   0.000000  celldm(6)=   0.000000

     crystal axes: (cart. coord. in units of alat)
               a(1) = (   0.964764   0.000000  -0.263117 )  
               a(2) = (   0.000000   0.277352   0.000000 )  
               a(3) = (   0.000000   0.000000   0.462648 )  

     reciprocal axes: (cart. coord. in units 2 pi/alat)
               b(1) = (  1.036523  0.000000  0.000000 )  
               b(2) = (  0.000000  3.605521  0.000000 )  
               b(3) = (  0.589492  0.000000  2.161470 )  


     PseudoPot. # 1 for Al read from file:
     /users/aglensk/Dropbox/Albert/scripts/dotfiles/scripts/potentials/quantum_espresso/pseudo_SSSPefV1.1_alalloy/Al.pbe-n-kjpaw_psl.1.0.0.UPF
     MD5 check sum: cfc449ca30b5f3223ec38ddd88ac046d
     Pseudo is Projector augmented-wave + core cor, Zval =  3.0
     Generated using "atomic" code by A. Dal Corso v.5.1
     Shape of augmentation charge: PSQ
     Using radial grid of 1135 points,  6 beta functions with: 
                l(1) =   0
                l(2) =   0
                l(3) =   1
                l(4) =   1
                l(5) =   2
                l(6) =   2
     Q(r) pseudized with 0 coefficients 


     PseudoPot. # 2 for Mg read from file:
     /users/aglensk/Dropbox/Albert/scripts/dotfiles/scripts/potentials/quantum_espresso/pseudo_SSSPefV1.1_alalloy/Mg.pbe-n-kjpaw_psl.0.3.0.UPF
     MD5 check sum: 24ecedc7f3e3cbe212e682f4413594e4
     Pseudo is Projector augmented-wave + core cor, Zval =  2.0
     Generated using "atomic" code by A. Dal Corso v.5.0.99 svn rev. 10869
     Shape of augmentation charge: PSQ
     Using radial grid of 1129 points,  4 beta functions with: 
                l(1) =   0
                l(2) =   0
                l(3) =   1
                l(4) =   1
     Q(r) pseudized with 0 coefficients 


     PseudoPot. # 3 for Si read from file:
     /users/aglensk/Dropbox/Albert/scripts/dotfiles/scripts/potentials/quantum_espresso/pseudo_SSSPefV1.1_alalloy/Si.pbe-n-rrkjus_psl.1.0.0.UPF
     MD5 check sum: 0b0bb1205258b0d07b9f9672cf965d36
     Pseudo is Ultrasoft + core correction, Zval =  4.0
     Generated using "atomic" code by A. Dal Corso v.5.1
     Using radial grid of 1141 points,  6 beta functions with: 
                l(1) =   0
                l(2) =   0
                l(3) =   1
                l(4) =   1
                l(5) =   2
                l(6) =   2
     Q(r) pseudized with 0 coefficients 


     atomic species   valence    mass     pseudopotential
        Al             3.00    26.98154     Al( 1.00)
        Mg             2.00    24.30500     Mg( 1.00)
        Si             4.00    28.08500     Si( 1.00)

     No symmetry found


                                    s                        frac. trans.

      isym =  1     identity                                     

 cryst.   s( 1) = (     1          0          0      )
                  (     0          1          0      )
                  (     0          0          1      )

 cart.    s( 1) = (  1.0000000  0.0000000  0.0000000 )
                  (  0.0000000  1.0000000  0.0000000 )
                  ( -0.0000000  0.0000000  1.0000000 )


   Cartesian axes

     site n.     atom                  positions (alat units)
         1           Al  tau(   1) = (   0.0013604   0.0000000   0.3152472  )
         2           Mg  tau(   2) = (   0.0708111   0.1386762  -0.0058814  )
         3           Mg  tau(   3) = (   0.1482087   0.1386762   0.2356392  )
         4           Mg  tau(   4) = (   0.3368989   0.0000000   0.2633037  )
         5           Mg  tau(   5) = (   0.4142932   0.0000000   0.0421823  )
         6           Si  tau(   6) = (   0.0563006   0.0000000   0.1444047  )
         7           Si  tau(   7) = (   0.1767747   0.0000000   0.3674451  )
         8           Al  tau(   8) = (   0.2126071   0.0000000   0.0798842  )
         9           Al  tau(   9) = (   0.2724945   0.1386762  -0.0435940  )
        10           Si  tau(  10) = (   0.3083262   0.1386762   0.1314890  )
        11           Si  tau(  11) = (   0.4288042   0.1386762  -0.1081072  )
        12           Al  tau(  12) = (   0.4837411   0.1386762   0.1836985  )
        13           Mg  tau(  13) = (   0.5531944   0.0000000  -0.1374057  )
        14           Mg  tau(  14) = (   0.6306020   0.0000000   0.1040756  )
        15           Mg  tau(  15) = (   0.8192704   0.1386762   0.1317472  )
        16           Mg  tau(  16) = (   0.8966730   0.1386762  -0.0894122  )
        17           Si  tau(  17) = (   0.5386815   0.1386762   0.0128549  )
        18           Si  tau(  18) = (   0.6591444   0.1386762   0.2358965  )
        19           Al  tau(  19) = (   0.6949949   0.1386762  -0.0516650  )
        20           Al  tau(  20) = (   0.7548699   0.0000000  -0.1751648  )
        21           Si  tau(  21) = (   0.7907200   0.0000000  -0.0000825  )
        22           Si  tau(  22) = (   0.9111873   0.0000000  -0.2396753  )

   Crystallographic axes

     site n.     atom                  positions (cryst. coord.)
         1           Al  tau(   1) = (  0.0014101  0.0000000  0.6821993  )
         2           Mg  tau(   2) = (  0.0733973  0.5000000  0.0290302  )
         3           Mg  tau(   3) = (  0.1536218  0.5000000  0.5966949  )
         4           Mg  tau(   4) = (  0.3492035  0.0000000  0.7677222  )
         5           Mg  tau(   5) = (  0.4294244  0.0000000  0.3353981  )
         6           Si  tau(   6) = (  0.0583569  0.0000000  0.3453152  )
         7           Si  tau(   7) = (  0.1832311  0.0000000  0.8984288  )
         8           Al  tau(   8) = (  0.2203722  0.0000000  0.2979975  )
         9           Al  tau(   9) = (  0.2824469  0.5000000  0.0664063  )
        10           Si  tau(  10) = (  0.3195872  0.5000000  0.4659653  )
        11           Si  tau(  11) = (  0.4444655  0.5000000  0.0191060  )
        12           Al  tau(  12) = (  0.5014088  0.5000000  0.6822203  )
        13           Mg  tau(  13) = (  0.5733988  0.0000000  0.0291053  )
        14           Mg  tau(  14) = (  0.6536336  0.0000000  0.5966911  )
        15           Mg  tau(  15) = (  0.8491927  0.5000000  0.7677209  )
        16           Mg  tau(  16) = (  0.9294223  0.5000000  0.3353196  )
        17           Si  tau(  17) = (  0.5583558  0.5000000  0.3453337  )
        18           Si  tau(  18) = (  0.6832184  0.5000000  0.8984435  )
        19           Al  tau(  19) = (  0.7203783  0.5000000  0.2980214  )
        20           Al  tau(  20) = (  0.7824401  0.0000000  0.0663761  )
        21           Si  tau(  21) = (  0.8195996  0.0000000  0.4659447  )
        22           Si  tau(  22) = (  0.9444667  0.0000000  0.0190866  )

     number of k points=   782  Methfessel-Paxton smearing, width (Ry)=  0.0441
                       cart. coord. in units 2pi/alat
        k(    1) = (   0.0000000   0.0000000   0.0000000), wk =   0.0012821
        k(    2) = (   0.0453455   0.0000000   0.1662669), wk =   0.0025641
        k(    3) = (   0.0906911   0.0000000   0.3325338), wk =   0.0025641
        k(    4) = (   0.1360366   0.0000000   0.4988008), wk =   0.0025641
        k(    5) = (   0.1813821   0.0000000   0.6650677), wk =   0.0025641
        k(    6) = (   0.2267276   0.0000000   0.8313346), wk =   0.0025641
        k(    7) = (   0.2720732   0.0000000   0.9976015), wk =   0.0025641
        k(    8) = (   0.0000000   0.1802761   0.0000000), wk =   0.0025641
        k(    9) = (   0.0453455   0.1802761   0.1662669), wk =   0.0025641
        k(   10) = (   0.0906911   0.1802761   0.3325338), wk =   0.0025641
        k(   11) = (   0.1360366   0.1802761   0.4988008), wk =   0.0025641
        k(   12) = (   0.1813821   0.1802761   0.6650677), wk =   0.0025641
        k(   13) = (   0.2267276   0.1802761   0.8313346), wk =   0.0025641
        k(   14) = (   0.2720732   0.1802761   0.9976015), wk =   0.0025641
        k(   15) = (  -0.2720732   0.1802761  -0.9976015), wk =   0.0025641
        k(   16) = (  -0.2267276   0.1802761  -0.8313346), wk =   0.0025641
        k(   17) = (  -0.1813821   0.1802761  -0.6650677), wk =   0.0025641
        k(   18) = (  -0.1360366   0.1802761  -0.4988008), wk =   0.0025641
        k(   19) = (  -0.0906911   0.1802761  -0.3325338), wk =   0.0025641
        k(   20) = (  -0.0453455   0.1802761  -0.1662669), wk =   0.0025641
        k(   21) = (   0.0000000   0.3605521   0.0000000), wk =   0.0025641
        k(   22) = (   0.0453455   0.3605521   0.1662669), wk =   0.0025641
        k(   23) = (   0.0906911   0.3605521   0.3325338), wk =   0.0025641
        k(   24) = (   0.1360366   0.3605521   0.4988008), wk =   0.0025641
        k(   25) = (   0.1813821   0.3605521   0.6650677), wk =   0.0025641
        k(   26) = (   0.2267276   0.3605521   0.8313346), wk =   0.0025641
        k(   27) = (   0.2720732   0.3605521   0.9976015), wk =   0.0025641
        k(   28) = (  -0.2720732   0.3605521  -0.9976015), wk =   0.0025641
        k(   29) = (  -0.2267276   0.3605521  -0.8313346), wk =   0.0025641
        k(   30) = (  -0.1813821   0.3605521  -0.6650677), wk =   0.0025641
        k(   31) = (  -0.1360366   0.3605521  -0.4988008), wk =   0.0025641
        k(   32) = (  -0.0906911   0.3605521  -0.3325338), wk =   0.0025641
        k(   33) = (  -0.0453455   0.3605521  -0.1662669), wk =   0.0025641
        k(   34) = (   0.0000000   0.5408282   0.0000000), wk =   0.0025641
        k(   35) = (   0.0453455   0.5408282   0.1662669), wk =   0.0025641
        k(   36) = (   0.0906911   0.5408282   0.3325338), wk =   0.0025641
        k(   37) = (   0.1360366   0.5408282   0.4988008), wk =   0.0025641
        k(   38) = (   0.1813821   0.5408282   0.6650677), wk =   0.0025641
        k(   39) = (   0.2267276   0.5408282   0.8313346), wk =   0.0025641
        k(   40) = (   0.2720732   0.5408282   0.9976015), wk =   0.0025641
        k(   41) = (  -0.2720732   0.5408282  -0.9976015), wk =   0.0025641
        k(   42) = (  -0.2267276   0.5408282  -0.8313346), wk =   0.0025641
        k(   43) = (  -0.1813821   0.5408282  -0.6650677), wk =   0.0025641
        k(   44) = (  -0.1360366   0.5408282  -0.4988008), wk =   0.0025641
        k(   45) = (  -0.0906911   0.5408282  -0.3325338), wk =   0.0025641
        k(   46) = (  -0.0453455   0.5408282  -0.1662669), wk =   0.0025641
        k(   47) = (   0.0000000   0.7211043   0.0000000), wk =   0.0025641
        k(   48) = (   0.0453455   0.7211043   0.1662669), wk =   0.0025641
        k(   49) = (   0.0906911   0.7211043   0.3325338), wk =   0.0025641
        k(   50) = (   0.1360366   0.7211043   0.4988008), wk =   0.0025641
        k(   51) = (   0.1813821   0.7211043   0.6650677), wk =   0.0025641
        k(   52) = (   0.2267276   0.7211043   0.8313346), wk =   0.0025641
        k(   53) = (   0.2720732   0.7211043   0.9976015), wk =   0.0025641
        k(   54) = (  -0.2720732   0.7211043  -0.9976015), wk =   0.0025641
        k(   55) = (  -0.2267276   0.7211043  -0.8313346), wk =   0.0025641
        k(   56) = (  -0.1813821   0.7211043  -0.6650677), wk =   0.0025641
        k(   57) = (  -0.1360366   0.7211043  -0.4988008), wk =   0.0025641
        k(   58) = (  -0.0906911   0.7211043  -0.3325338), wk =   0.0025641
        k(   59) = (  -0.0453455   0.7211043  -0.1662669), wk =   0.0025641
        k(   60) = (   0.0000000   0.9013803   0.0000000), wk =   0.0025641
        k(   61) = (   0.0453455   0.9013803   0.1662669), wk =   0.0025641
        k(   62) = (   0.0906911   0.9013803   0.3325338), wk =   0.0025641
        k(   63) = (   0.1360366   0.9013803   0.4988008), wk =   0.0025641
        k(   64) = (   0.1813821   0.9013803   0.6650677), wk =   0.0025641
        k(   65) = (   0.2267276   0.9013803   0.8313346), wk =   0.0025641
        k(   66) = (   0.2720732   0.9013803   0.9976015), wk =   0.0025641
        k(   67) = (  -0.2720732   0.9013803  -0.9976015), wk =   0.0025641
        k(   68) = (  -0.2267276   0.9013803  -0.8313346), wk =   0.0025641
        k(   69) = (  -0.1813821   0.9013803  -0.6650677), wk =   0.0025641
        k(   70) = (  -0.1360366   0.9013803  -0.4988008), wk =   0.0025641
        k(   71) = (  -0.0906911   0.9013803  -0.3325338), wk =   0.0025641
        k(   72) = (  -0.0453455   0.9013803  -0.1662669), wk =   0.0025641
        k(   73) = (   0.0000000   1.0816564   0.0000000), wk =   0.0025641
        k(   74) = (   0.0453455   1.0816564   0.1662669), wk =   0.0025641
        k(   75) = (   0.0906911   1.0816564   0.3325338), wk =   0.0025641
        k(   76) = (   0.1360366   1.0816564   0.4988008), wk =   0.0025641
        k(   77) = (   0.1813821   1.0816564   0.6650677), wk =   0.0025641
        k(   78) = (   0.2267276   1.0816564   0.8313346), wk =   0.0025641
        k(   79) = (   0.2720732   1.0816564   0.9976015), wk =   0.0025641
        k(   80) = (  -0.2720732   1.0816564  -0.9976015), wk =   0.0025641
        k(   81) = (  -0.2267276   1.0816564  -0.8313346), wk =   0.0025641
        k(   82) = (  -0.1813821   1.0816564  -0.6650677), wk =   0.0025641
        k(   83) = (  -0.1360366   1.0816564  -0.4988008), wk =   0.0025641
        k(   84) = (  -0.0906911   1.0816564  -0.3325338), wk =   0.0025641
        k(   85) = (  -0.0453455   1.0816564  -0.1662669), wk =   0.0025641
        k(   86) = (   0.0000000   1.2619324   0.0000000), wk =   0.0025641
        k(   87) = (   0.0453455   1.2619324   0.1662669), wk =   0.0025641
        k(   88) = (   0.0906911   1.2619324   0.3325338), wk =   0.0025641
        k(   89) = (   0.1360366   1.2619324   0.4988008), wk =   0.0025641
        k(   90) = (   0.1813821   1.2619324   0.6650677), wk =   0.0025641
        k(   91) = (   0.2267276   1.2619324   0.8313346), wk =   0.0025641
        k(   92) = (   0.2720732   1.2619324   0.9976015), wk =   0.0025641
        k(   93) = (  -0.2720732   1.2619324  -0.9976015), wk =   0.0025641
        k(   94) = (  -0.2267276   1.2619324  -0.8313346), wk =   0.0025641
        k(   95) = (  -0.1813821   1.2619324  -0.6650677), wk =   0.0025641
        k(   96) = (  -0.1360366   1.2619324  -0.4988008), wk =   0.0025641
        k(   97) = (  -0.0906911   1.2619324  -0.3325338), wk =   0.0025641
        k(   98) = (  -0.0453455   1.2619324  -0.1662669), wk =   0.0025641
        k(   99) = (   0.0000000   1.4422085   0.0000000), wk =   0.0025641
        k(  100) = (   0.0453455   1.4422085   0.1662669), wk =   0.0025641
        k(  101) = (   0.0906911   1.4422085   0.3325338), wk =   0.0025641
        k(  102) = (   0.1360366   1.4422085   0.4988008), wk =   0.0025641
        k(  103) = (   0.1813821   1.4422085   0.6650677), wk =   0.0025641
        k(  104) = (   0.2267276   1.4422085   0.8313346), wk =   0.0025641
        k(  105) = (   0.2720732   1.4422085   0.9976015), wk =   0.0025641
        k(  106) = (  -0.2720732   1.4422085  -0.9976015), wk =   0.0025641
        k(  107) = (  -0.2267276   1.4422085  -0.8313346), wk =   0.0025641
        k(  108) = (  -0.1813821   1.4422085  -0.6650677), wk =   0.0025641
        k(  109) = (  -0.1360366   1.4422085  -0.4988008), wk =   0.0025641
        k(  110) = (  -0.0906911   1.4422085  -0.3325338), wk =   0.0025641
        k(  111) = (  -0.0453455   1.4422085  -0.1662669), wk =   0.0025641
        k(  112) = (   0.0000000   1.6224846   0.0000000), wk =   0.0025641
        k(  113) = (   0.0453455   1.6224846   0.1662669), wk =   0.0025641
        k(  114) = (   0.0906911   1.6224846   0.3325338), wk =   0.0025641
        k(  115) = (   0.1360366   1.6224846   0.4988008), wk =   0.0025641
        k(  116) = (   0.1813821   1.6224846   0.6650677), wk =   0.0025641
        k(  117) = (   0.2267276   1.6224846   0.8313346), wk =   0.0025641
        k(  118) = (   0.2720732   1.6224846   0.9976015), wk =   0.0025641
        k(  119) = (  -0.2720732   1.6224846  -0.9976015), wk =   0.0025641
        k(  120) = (  -0.2267276   1.6224846  -0.8313346), wk =   0.0025641
        k(  121) = (  -0.1813821   1.6224846  -0.6650677), wk =   0.0025641
        k(  122) = (  -0.1360366   1.6224846  -0.4988008), wk =   0.0025641
        k(  123) = (  -0.0906911   1.6224846  -0.3325338), wk =   0.0025641
        k(  124) = (  -0.0453455   1.6224846  -0.1662669), wk =   0.0025641
        k(  125) = (   0.0000000  -1.8027606   0.0000000), wk =   0.0012821
        k(  126) = (   0.0453455  -1.8027606   0.1662669), wk =   0.0025641
        k(  127) = (   0.0906911  -1.8027606   0.3325338), wk =   0.0025641
        k(  128) = (   0.1360366  -1.8027606   0.4988008), wk =   0.0025641
        k(  129) = (   0.1813821  -1.8027606   0.6650677), wk =   0.0025641
        k(  130) = (   0.2267276  -1.8027606   0.8313346), wk =   0.0025641
        k(  131) = (   0.2720732  -1.8027606   0.9976015), wk =   0.0025641
        k(  132) = (   0.1727539   0.0000000   0.0000000), wk =   0.0025641
        k(  133) = (   0.2180994   0.0000000   0.1662669), wk =   0.0025641
        k(  134) = (   0.2634449   0.0000000   0.3325338), wk =   0.0025641
        k(  135) = (   0.3087904   0.0000000   0.4988008), wk =   0.0025641
        k(  136) = (   0.3541360   0.0000000   0.6650677), wk =   0.0025641
        k(  137) = (   0.3994815   0.0000000   0.8313346), wk =   0.0025641
        k(  138) = (   0.4448270   0.0000000   0.9976015), wk =   0.0025641
        k(  139) = (  -0.0993193   0.0000000  -0.9976015), wk =   0.0025641
        k(  140) = (  -0.0539738   0.0000000  -0.8313346), wk =   0.0025641
        k(  141) = (  -0.0086283   0.0000000  -0.6650677), wk =   0.0025641
        k(  142) = (   0.0367173   0.0000000  -0.4988008), wk =   0.0025641
        k(  143) = (   0.0820628   0.0000000  -0.3325338), wk =   0.0025641
        k(  144) = (   0.1274083   0.0000000  -0.1662669), wk =   0.0025641
        k(  145) = (   0.1727539   0.1802761   0.0000000), wk =   0.0025641
        k(  146) = (   0.2180994   0.1802761   0.1662669), wk =   0.0025641
        k(  147) = (   0.2634449   0.1802761   0.3325338), wk =   0.0025641
        k(  148) = (   0.3087904   0.1802761   0.4988008), wk =   0.0025641
        k(  149) = (   0.3541360   0.1802761   0.6650677), wk =   0.0025641
        k(  150) = (   0.3994815   0.1802761   0.8313346), wk =   0.0025641
        k(  151) = (   0.4448270   0.1802761   0.9976015), wk =   0.0025641
        k(  152) = (  -0.0993193   0.1802761  -0.9976015), wk =   0.0025641
        k(  153) = (  -0.0539738   0.1802761  -0.8313346), wk =   0.0025641
        k(  154) = (  -0.0086283   0.1802761  -0.6650677), wk =   0.0025641
        k(  155) = (   0.0367173   0.1802761  -0.4988008), wk =   0.0025641
        k(  156) = (   0.0820628   0.1802761  -0.3325338), wk =   0.0025641
        k(  157) = (   0.1274083   0.1802761  -0.1662669), wk =   0.0025641
        k(  158) = (   0.1727539   0.3605521   0.0000000), wk =   0.0025641
        k(  159) = (   0.2180994   0.3605521   0.1662669), wk =   0.0025641
        k(  160) = (   0.2634449   0.3605521   0.3325338), wk =   0.0025641
        k(  161) = (   0.3087904   0.3605521   0.4988008), wk =   0.0025641
        k(  162) = (   0.3541360   0.3605521   0.6650677), wk =   0.0025641
        k(  163) = (   0.3994815   0.3605521   0.8313346), wk =   0.0025641
        k(  164) = (   0.4448270   0.3605521   0.9976015), wk =   0.0025641
        k(  165) = (  -0.0993193   0.3605521  -0.9976015), wk =   0.0025641
        k(  166) = (  -0.0539738   0.3605521  -0.8313346), wk =   0.0025641
        k(  167) = (  -0.0086283   0.3605521  -0.6650677), wk =   0.0025641
        k(  168) = (   0.0367173   0.3605521  -0.4988008), wk =   0.0025641
        k(  169) = (   0.0820628   0.3605521  -0.3325338), wk =   0.0025641
        k(  170) = (   0.1274083   0.3605521  -0.1662669), wk =   0.0025641
        k(  171) = (   0.1727539   0.5408282   0.0000000), wk =   0.0025641
        k(  172) = (   0.2180994   0.5408282   0.1662669), wk =   0.0025641
        k(  173) = (   0.2634449   0.5408282   0.3325338), wk =   0.0025641
        k(  174) = (   0.3087904   0.5408282   0.4988008), wk =   0.0025641
        k(  175) = (   0.3541360   0.5408282   0.6650677), wk =   0.0025641
        k(  176) = (   0.3994815   0.5408282   0.8313346), wk =   0.0025641
        k(  177) = (   0.4448270   0.5408282   0.9976015), wk =   0.0025641
        k(  178) = (  -0.0993193   0.5408282  -0.9976015), wk =   0.0025641
        k(  179) = (  -0.0539738   0.5408282  -0.8313346), wk =   0.0025641
        k(  180) = (  -0.0086283   0.5408282  -0.6650677), wk =   0.0025641
        k(  181) = (   0.0367173   0.5408282  -0.4988008), wk =   0.0025641
        k(  182) = (   0.0820628   0.5408282  -0.3325338), wk =   0.0025641
        k(  183) = (   0.1274083   0.5408282  -0.1662669), wk =   0.0025641
        k(  184) = (   0.1727539   0.7211043   0.0000000), wk =   0.0025641
        k(  185) = (   0.2180994   0.7211043   0.1662669), wk =   0.0025641
        k(  186) = (   0.2634449   0.7211043   0.3325338), wk =   0.0025641
        k(  187) = (   0.3087904   0.7211043   0.4988008), wk =   0.0025641
        k(  188) = (   0.3541360   0.7211043   0.6650677), wk =   0.0025641
        k(  189) = (   0.3994815   0.7211043   0.8313346), wk =   0.0025641
        k(  190) = (   0.4448270   0.7211043   0.9976015), wk =   0.0025641
        k(  191) = (  -0.0993193   0.7211043  -0.9976015), wk =   0.0025641
        k(  192) = (  -0.0539738   0.7211043  -0.8313346), wk =   0.0025641
        k(  193) = (  -0.0086283   0.7211043  -0.6650677), wk =   0.0025641
        k(  194) = (   0.0367173   0.7211043  -0.4988008), wk =   0.0025641
        k(  195) = (   0.0820628   0.7211043  -0.3325338), wk =   0.0025641
        k(  196) = (   0.1274083   0.7211043  -0.1662669), wk =   0.0025641
        k(  197) = (   0.1727539   0.9013803   0.0000000), wk =   0.0025641
        k(  198) = (   0.2180994   0.9013803   0.1662669), wk =   0.0025641
        k(  199) = (   0.2634449   0.9013803   0.3325338), wk =   0.0025641
        k(  200) = (   0.3087904   0.9013803   0.4988008), wk =   0.0025641
        k(  201) = (   0.3541360   0.9013803   0.6650677), wk =   0.0025641
        k(  202) = (   0.3994815   0.9013803   0.8313346), wk =   0.0025641
        k(  203) = (   0.4448270   0.9013803   0.9976015), wk =   0.0025641
        k(  204) = (  -0.0993193   0.9013803  -0.9976015), wk =   0.0025641
        k(  205) = (  -0.0539738   0.9013803  -0.8313346), wk =   0.0025641
        k(  206) = (  -0.0086283   0.9013803  -0.6650677), wk =   0.0025641
        k(  207) = (   0.0367173   0.9013803  -0.4988008), wk =   0.0025641
        k(  208) = (   0.0820628   0.9013803  -0.3325338), wk =   0.0025641
        k(  209) = (   0.1274083   0.9013803  -0.1662669), wk =   0.0025641
        k(  210) = (   0.1727539   1.0816564   0.0000000), wk =   0.0025641
        k(  211) = (   0.2180994   1.0816564   0.1662669), wk =   0.0025641
        k(  212) = (   0.2634449   1.0816564   0.3325338), wk =   0.0025641
        k(  213) = (   0.3087904   1.0816564   0.4988008), wk =   0.0025641
        k(  214) = (   0.3541360   1.0816564   0.6650677), wk =   0.0025641
        k(  215) = (   0.3994815   1.0816564   0.8313346), wk =   0.0025641
        k(  216) = (   0.4448270   1.0816564   0.9976015), wk =   0.0025641
        k(  217) = (  -0.0993193   1.0816564  -0.9976015), wk =   0.0025641
        k(  218) = (  -0.0539738   1.0816564  -0.8313346), wk =   0.0025641
        k(  219) = (  -0.0086283   1.0816564  -0.6650677), wk =   0.0025641
        k(  220) = (   0.0367173   1.0816564  -0.4988008), wk =   0.0025641
        k(  221) = (   0.0820628   1.0816564  -0.3325338), wk =   0.0025641
        k(  222) = (   0.1274083   1.0816564  -0.1662669), wk =   0.0025641
        k(  223) = (   0.1727539   1.2619324   0.0000000), wk =   0.0025641
        k(  224) = (   0.2180994   1.2619324   0.1662669), wk =   0.0025641
        k(  225) = (   0.2634449   1.2619324   0.3325338), wk =   0.0025641
        k(  226) = (   0.3087904   1.2619324   0.4988008), wk =   0.0025641
        k(  227) = (   0.3541360   1.2619324   0.6650677), wk =   0.0025641
        k(  228) = (   0.3994815   1.2619324   0.8313346), wk =   0.0025641
        k(  229) = (   0.4448270   1.2619324   0.9976015), wk =   0.0025641
        k(  230) = (  -0.0993193   1.2619324  -0.9976015), wk =   0.0025641
        k(  231) = (  -0.0539738   1.2619324  -0.8313346), wk =   0.0025641
        k(  232) = (  -0.0086283   1.2619324  -0.6650677), wk =   0.0025641
        k(  233) = (   0.0367173   1.2619324  -0.4988008), wk =   0.0025641
        k(  234) = (   0.0820628   1.2619324  -0.3325338), wk =   0.0025641
        k(  235) = (   0.1274083   1.2619324  -0.1662669), wk =   0.0025641
        k(  236) = (   0.1727539   1.4422085   0.0000000), wk =   0.0025641
        k(  237) = (   0.2180994   1.4422085   0.1662669), wk =   0.0025641
        k(  238) = (   0.2634449   1.4422085   0.3325338), wk =   0.0025641
        k(  239) = (   0.3087904   1.4422085   0.4988008), wk =   0.0025641
        k(  240) = (   0.3541360   1.4422085   0.6650677), wk =   0.0025641
        k(  241) = (   0.3994815   1.4422085   0.8313346), wk =   0.0025641
        k(  242) = (   0.4448270   1.4422085   0.9976015), wk =   0.0025641
        k(  243) = (  -0.0993193   1.4422085  -0.9976015), wk =   0.0025641
        k(  244) = (  -0.0539738   1.4422085  -0.8313346), wk =   0.0025641
        k(  245) = (  -0.0086283   1.4422085  -0.6650677), wk =   0.0025641
        k(  246) = (   0.0367173   1.4422085  -0.4988008), wk =   0.0025641
        k(  247) = (   0.0820628   1.4422085  -0.3325338), wk =   0.0025641
        k(  248) = (   0.1274083   1.4422085  -0.1662669), wk =   0.0025641
        k(  249) = (   0.1727539   1.6224846   0.0000000), wk =   0.0025641
        k(  250) = (   0.2180994   1.6224846   0.1662669), wk =   0.0025641
        k(  251) = (   0.2634449   1.6224846   0.3325338), wk =   0.0025641
        k(  252) = (   0.3087904   1.6224846   0.4988008), wk =   0.0025641
        k(  253) = (   0.3541360   1.6224846   0.6650677), wk =   0.0025641
        k(  254) = (   0.3994815   1.6224846   0.8313346), wk =   0.0025641
        k(  255) = (   0.4448270   1.6224846   0.9976015), wk =   0.0025641
        k(  256) = (  -0.0993193   1.6224846  -0.9976015), wk =   0.0025641
        k(  257) = (  -0.0539738   1.6224846  -0.8313346), wk =   0.0025641
        k(  258) = (  -0.0086283   1.6224846  -0.6650677), wk =   0.0025641
        k(  259) = (   0.0367173   1.6224846  -0.4988008), wk =   0.0025641
        k(  260) = (   0.0820628   1.6224846  -0.3325338), wk =   0.0025641
        k(  261) = (   0.1274083   1.6224846  -0.1662669), wk =   0.0025641
        k(  262) = (   0.1727539  -1.8027606   0.0000000), wk =   0.0025641
        k(  263) = (   0.2180994  -1.8027606   0.1662669), wk =   0.0025641
        k(  264) = (   0.2634449  -1.8027606   0.3325338), wk =   0.0025641
        k(  265) = (   0.3087904  -1.8027606   0.4988008), wk =   0.0025641
        k(  266) = (   0.3541360  -1.8027606   0.6650677), wk =   0.0025641
        k(  267) = (   0.3994815  -1.8027606   0.8313346), wk =   0.0025641
        k(  268) = (   0.4448270  -1.8027606   0.9976015), wk =   0.0025641
        k(  269) = (  -0.0993193  -1.8027606  -0.9976015), wk =   0.0025641
        k(  270) = (  -0.0539738  -1.8027606  -0.8313346), wk =   0.0025641
        k(  271) = (  -0.0086283  -1.8027606  -0.6650677), wk =   0.0025641
        k(  272) = (   0.0367173  -1.8027606  -0.4988008), wk =   0.0025641
        k(  273) = (   0.0820628  -1.8027606  -0.3325338), wk =   0.0025641
        k(  274) = (   0.1274083  -1.8027606  -0.1662669), wk =   0.0025641
        k(  275) = (   0.1727539  -1.6224846   0.0000000), wk =   0.0025641
        k(  276) = (   0.2180994  -1.6224846   0.1662669), wk =   0.0025641
        k(  277) = (   0.2634449  -1.6224846   0.3325338), wk =   0.0025641
        k(  278) = (   0.3087904  -1.6224846   0.4988008), wk =   0.0025641
        k(  279) = (   0.3541360  -1.6224846   0.6650677), wk =   0.0025641
        k(  280) = (   0.3994815  -1.6224846   0.8313346), wk =   0.0025641
        k(  281) = (   0.4448270  -1.6224846   0.9976015), wk =   0.0025641
        k(  282) = (  -0.0993193  -1.6224846  -0.9976015), wk =   0.0025641
        k(  283) = (  -0.0539738  -1.6224846  -0.8313346), wk =   0.0025641
        k(  284) = (  -0.0086283  -1.6224846  -0.6650677), wk =   0.0025641
        k(  285) = (   0.0367173  -1.6224846  -0.4988008), wk =   0.0025641
        k(  286) = (   0.0820628  -1.6224846  -0.3325338), wk =   0.0025641
        k(  287) = (   0.1274083  -1.6224846  -0.1662669), wk =   0.0025641
        k(  288) = (   0.1727539  -1.4422085   0.0000000), wk =   0.0025641
        k(  289) = (   0.2180994  -1.4422085   0.1662669), wk =   0.0025641
        k(  290) = (   0.2634449  -1.4422085   0.3325338), wk =   0.0025641
        k(  291) = (   0.3087904  -1.4422085   0.4988008), wk =   0.0025641
        k(  292) = (   0.3541360  -1.4422085   0.6650677), wk =   0.0025641
        k(  293) = (   0.3994815  -1.4422085   0.8313346), wk =   0.0025641
        k(  294) = (   0.4448270  -1.4422085   0.9976015), wk =   0.0025641
        k(  295) = (  -0.0993193  -1.4422085  -0.9976015), wk =   0.0025641
        k(  296) = (  -0.0539738  -1.4422085  -0.8313346), wk =   0.0025641
        k(  297) = (  -0.0086283  -1.4422085  -0.6650677), wk =   0.0025641
        k(  298) = (   0.0367173  -1.4422085  -0.4988008), wk =   0.0025641
        k(  299) = (   0.0820628  -1.4422085  -0.3325338), wk =   0.0025641
        k(  300) = (   0.1274083  -1.4422085  -0.1662669), wk =   0.0025641
        k(  301) = (   0.1727539  -1.2619324   0.0000000), wk =   0.0025641
        k(  302) = (   0.2180994  -1.2619324   0.1662669), wk =   0.0025641
        k(  303) = (   0.2634449  -1.2619324   0.3325338), wk =   0.0025641
        k(  304) = (   0.3087904  -1.2619324   0.4988008), wk =   0.0025641
        k(  305) = (   0.3541360  -1.2619324   0.6650677), wk =   0.0025641
        k(  306) = (   0.3994815  -1.2619324   0.8313346), wk =   0.0025641
        k(  307) = (   0.4448270  -1.2619324   0.9976015), wk =   0.0025641
        k(  308) = (  -0.0993193  -1.2619324  -0.9976015), wk =   0.0025641
        k(  309) = (  -0.0539738  -1.2619324  -0.8313346), wk =   0.0025641
        k(  310) = (  -0.0086283  -1.2619324  -0.6650677), wk =   0.0025641
        k(  311) = (   0.0367173  -1.2619324  -0.4988008), wk =   0.0025641
        k(  312) = (   0.0820628  -1.2619324  -0.3325338), wk =   0.0025641
        k(  313) = (   0.1274083  -1.2619324  -0.1662669), wk =   0.0025641
        k(  314) = (   0.1727539  -1.0816564   0.0000000), wk =   0.0025641
        k(  315) = (   0.2180994  -1.0816564   0.1662669), wk =   0.0025641
        k(  316) = (   0.2634449  -1.0816564   0.3325338), wk =   0.0025641
        k(  317) = (   0.3087904  -1.0816564   0.4988008), wk =   0.0025641
        k(  318) = (   0.3541360  -1.0816564   0.6650677), wk =   0.0025641
        k(  319) = (   0.3994815  -1.0816564   0.8313346), wk =   0.0025641
        k(  320) = (   0.4448270  -1.0816564   0.9976015), wk =   0.0025641
        k(  321) = (  -0.0993193  -1.0816564  -0.9976015), wk =   0.0025641
        k(  322) = (  -0.0539738  -1.0816564  -0.8313346), wk =   0.0025641
        k(  323) = (  -0.0086283  -1.0816564  -0.6650677), wk =   0.0025641
        k(  324) = (   0.0367173  -1.0816564  -0.4988008), wk =   0.0025641
        k(  325) = (   0.0820628  -1.0816564  -0.3325338), wk =   0.0025641
        k(  326) = (   0.1274083  -1.0816564  -0.1662669), wk =   0.0025641
        k(  327) = (   0.1727539  -0.9013803   0.0000000), wk =   0.0025641
        k(  328) = (   0.2180994  -0.9013803   0.1662669), wk =   0.0025641
        k(  329) = (   0.2634449  -0.9013803   0.3325338), wk =   0.0025641
        k(  330) = (   0.3087904  -0.9013803   0.4988008), wk =   0.0025641
        k(  331) = (   0.3541360  -0.9013803   0.6650677), wk =   0.0025641
        k(  332) = (   0.3994815  -0.9013803   0.8313346), wk =   0.0025641
        k(  333) = (   0.4448270  -0.9013803   0.9976015), wk =   0.0025641
        k(  334) = (  -0.0993193  -0.9013803  -0.9976015), wk =   0.0025641
        k(  335) = (  -0.0539738  -0.9013803  -0.8313346), wk =   0.0025641
        k(  336) = (  -0.0086283  -0.9013803  -0.6650677), wk =   0.0025641
        k(  337) = (   0.0367173  -0.9013803  -0.4988008), wk =   0.0025641
        k(  338) = (   0.0820628  -0.9013803  -0.3325338), wk =   0.0025641
        k(  339) = (   0.1274083  -0.9013803  -0.1662669), wk =   0.0025641
        k(  340) = (   0.1727539  -0.7211043   0.0000000), wk =   0.0025641
        k(  341) = (   0.2180994  -0.7211043   0.1662669), wk =   0.0025641
        k(  342) = (   0.2634449  -0.7211043   0.3325338), wk =   0.0025641
        k(  343) = (   0.3087904  -0.7211043   0.4988008), wk =   0.0025641
        k(  344) = (   0.3541360  -0.7211043   0.6650677), wk =   0.0025641
        k(  345) = (   0.3994815  -0.7211043   0.8313346), wk =   0.0025641
        k(  346) = (   0.4448270  -0.7211043   0.9976015), wk =   0.0025641
        k(  347) = (  -0.0993193  -0.7211043  -0.9976015), wk =   0.0025641
        k(  348) = (  -0.0539738  -0.7211043  -0.8313346), wk =   0.0025641
        k(  349) = (  -0.0086283  -0.7211043  -0.6650677), wk =   0.0025641
        k(  350) = (   0.0367173  -0.7211043  -0.4988008), wk =   0.0025641
        k(  351) = (   0.0820628  -0.7211043  -0.3325338), wk =   0.0025641
        k(  352) = (   0.1274083  -0.7211043  -0.1662669), wk =   0.0025641
        k(  353) = (   0.1727539  -0.5408282   0.0000000), wk =   0.0025641
        k(  354) = (   0.2180994  -0.5408282   0.1662669), wk =   0.0025641
        k(  355) = (   0.2634449  -0.5408282   0.3325338), wk =   0.0025641
        k(  356) = (   0.3087904  -0.5408282   0.4988008), wk =   0.0025641
        k(  357) = (   0.3541360  -0.5408282   0.6650677), wk =   0.0025641
        k(  358) = (   0.3994815  -0.5408282   0.8313346), wk =   0.0025641
        k(  359) = (   0.4448270  -0.5408282   0.9976015), wk =   0.0025641
        k(  360) = (  -0.0993193  -0.5408282  -0.9976015), wk =   0.0025641
        k(  361) = (  -0.0539738  -0.5408282  -0.8313346), wk =   0.0025641
        k(  362) = (  -0.0086283  -0.5408282  -0.6650677), wk =   0.0025641
        k(  363) = (   0.0367173  -0.5408282  -0.4988008), wk =   0.0025641
        k(  364) = (   0.0820628  -0.5408282  -0.3325338), wk =   0.0025641
        k(  365) = (   0.1274083  -0.5408282  -0.1662669), wk =   0.0025641
        k(  366) = (   0.1727539  -0.3605521   0.0000000), wk =   0.0025641
        k(  367) = (   0.2180994  -0.3605521   0.1662669), wk =   0.0025641
        k(  368) = (   0.2634449  -0.3605521   0.3325338), wk =   0.0025641
        k(  369) = (   0.3087904  -0.3605521   0.4988008), wk =   0.0025641
        k(  370) = (   0.3541360  -0.3605521   0.6650677), wk =   0.0025641
        k(  371) = (   0.3994815  -0.3605521   0.8313346), wk =   0.0025641
        k(  372) = (   0.4448270  -0.3605521   0.9976015), wk =   0.0025641
        k(  373) = (  -0.0993193  -0.3605521  -0.9976015), wk =   0.0025641
        k(  374) = (  -0.0539738  -0.3605521  -0.8313346), wk =   0.0025641
        k(  375) = (  -0.0086283  -0.3605521  -0.6650677), wk =   0.0025641
        k(  376) = (   0.0367173  -0.3605521  -0.4988008), wk =   0.0025641
        k(  377) = (   0.0820628  -0.3605521  -0.3325338), wk =   0.0025641
        k(  378) = (   0.1274083  -0.3605521  -0.1662669), wk =   0.0025641
        k(  379) = (   0.1727539  -0.1802761   0.0000000), wk =   0.0025641
        k(  380) = (   0.2180994  -0.1802761   0.1662669), wk =   0.0025641
        k(  381) = (   0.2634449  -0.1802761   0.3325338), wk =   0.0025641
        k(  382) = (   0.3087904  -0.1802761   0.4988008), wk =   0.0025641
        k(  383) = (   0.3541360  -0.1802761   0.6650677), wk =   0.0025641
        k(  384) = (   0.3994815  -0.1802761   0.8313346), wk =   0.0025641
        k(  385) = (   0.4448270  -0.1802761   0.9976015), wk =   0.0025641
        k(  386) = (  -0.0993193  -0.1802761  -0.9976015), wk =   0.0025641
        k(  387) = (  -0.0539738  -0.1802761  -0.8313346), wk =   0.0025641
        k(  388) = (  -0.0086283  -0.1802761  -0.6650677), wk =   0.0025641
        k(  389) = (   0.0367173  -0.1802761  -0.4988008), wk =   0.0025641
        k(  390) = (   0.0820628  -0.1802761  -0.3325338), wk =   0.0025641
        k(  391) = (   0.1274083  -0.1802761  -0.1662669), wk =   0.0025641
        k(  392) = (   0.3455077   0.0000000   0.0000000), wk =   0.0025641
        k(  393) = (   0.3908532   0.0000000   0.1662669), wk =   0.0025641
        k(  394) = (   0.4361988   0.0000000   0.3325338), wk =   0.0025641
        k(  395) = (   0.4815443   0.0000000   0.4988008), wk =   0.0025641
        k(  396) = (   0.5268898   0.0000000   0.6650677), wk =   0.0025641
        k(  397) = (   0.5722353   0.0000000   0.8313346), wk =   0.0025641
        k(  398) = (   0.6175809   0.0000000   0.9976015), wk =   0.0025641
        k(  399) = (   0.0734345   0.0000000  -0.9976015), wk =   0.0025641
        k(  400) = (   0.1187801   0.0000000  -0.8313346), wk =   0.0025641
        k(  401) = (   0.1641256   0.0000000  -0.6650677), wk =   0.0025641
        k(  402) = (   0.2094711   0.0000000  -0.4988008), wk =   0.0025641
        k(  403) = (   0.2548167   0.0000000  -0.3325338), wk =   0.0025641
        k(  404) = (   0.3001622   0.0000000  -0.1662669), wk =   0.0025641
        k(  405) = (   0.3455077   0.1802761   0.0000000), wk =   0.0025641
        k(  406) = (   0.3908532   0.1802761   0.1662669), wk =   0.0025641
        k(  407) = (   0.4361988   0.1802761   0.3325338), wk =   0.0025641
        k(  408) = (   0.4815443   0.1802761   0.4988008), wk =   0.0025641
        k(  409) = (   0.5268898   0.1802761   0.6650677), wk =   0.0025641
        k(  410) = (   0.5722353   0.1802761   0.8313346), wk =   0.0025641
        k(  411) = (   0.6175809   0.1802761   0.9976015), wk =   0.0025641
        k(  412) = (   0.0734345   0.1802761  -0.9976015), wk =   0.0025641
        k(  413) = (   0.1187801   0.1802761  -0.8313346), wk =   0.0025641
        k(  414) = (   0.1641256   0.1802761  -0.6650677), wk =   0.0025641
        k(  415) = (   0.2094711   0.1802761  -0.4988008), wk =   0.0025641
        k(  416) = (   0.2548167   0.1802761  -0.3325338), wk =   0.0025641
        k(  417) = (   0.3001622   0.1802761  -0.1662669), wk =   0.0025641
        k(  418) = (   0.3455077   0.3605521   0.0000000), wk =   0.0025641
        k(  419) = (   0.3908532   0.3605521   0.1662669), wk =   0.0025641
        k(  420) = (   0.4361988   0.3605521   0.3325338), wk =   0.0025641
        k(  421) = (   0.4815443   0.3605521   0.4988008), wk =   0.0025641
        k(  422) = (   0.5268898   0.3605521   0.6650677), wk =   0.0025641
        k(  423) = (   0.5722353   0.3605521   0.8313346), wk =   0.0025641
        k(  424) = (   0.6175809   0.3605521   0.9976015), wk =   0.0025641
        k(  425) = (   0.0734345   0.3605521  -0.9976015), wk =   0.0025641
        k(  426) = (   0.1187801   0.3605521  -0.8313346), wk =   0.0025641
        k(  427) = (   0.1641256   0.3605521  -0.6650677), wk =   0.0025641
        k(  428) = (   0.2094711   0.3605521  -0.4988008), wk =   0.0025641
        k(  429) = (   0.2548167   0.3605521  -0.3325338), wk =   0.0025641
        k(  430) = (   0.3001622   0.3605521  -0.1662669), wk =   0.0025641
        k(  431) = (   0.3455077   0.5408282   0.0000000), wk =   0.0025641
        k(  432) = (   0.3908532   0.5408282   0.1662669), wk =   0.0025641
        k(  433) = (   0.4361988   0.5408282   0.3325338), wk =   0.0025641
        k(  434) = (   0.4815443   0.5408282   0.4988008), wk =   0.0025641
        k(  435) = (   0.5268898   0.5408282   0.6650677), wk =   0.0025641
        k(  436) = (   0.5722353   0.5408282   0.8313346), wk =   0.0025641
        k(  437) = (   0.6175809   0.5408282   0.9976015), wk =   0.0025641
        k(  438) = (   0.0734345   0.5408282  -0.9976015), wk =   0.0025641
        k(  439) = (   0.1187801   0.5408282  -0.8313346), wk =   0.0025641
        k(  440) = (   0.1641256   0.5408282  -0.6650677), wk =   0.0025641
        k(  441) = (   0.2094711   0.5408282  -0.4988008), wk =   0.0025641
        k(  442) = (   0.2548167   0.5408282  -0.3325338), wk =   0.0025641
        k(  443) = (   0.3001622   0.5408282  -0.1662669), wk =   0.0025641
        k(  444) = (   0.3455077   0.7211043   0.0000000), wk =   0.0025641
        k(  445) = (   0.3908532   0.7211043   0.1662669), wk =   0.0025641
        k(  446) = (   0.4361988   0.7211043   0.3325338), wk =   0.0025641
        k(  447) = (   0.4815443   0.7211043   0.4988008), wk =   0.0025641
        k(  448) = (   0.5268898   0.7211043   0.6650677), wk =   0.0025641
        k(  449) = (   0.5722353   0.7211043   0.8313346), wk =   0.0025641
        k(  450) = (   0.6175809   0.7211043   0.9976015), wk =   0.0025641
        k(  451) = (   0.0734345   0.7211043  -0.9976015), wk =   0.0025641
        k(  452) = (   0.1187801   0.7211043  -0.8313346), wk =   0.0025641
        k(  453) = (   0.1641256   0.7211043  -0.6650677), wk =   0.0025641
        k(  454) = (   0.2094711   0.7211043  -0.4988008), wk =   0.0025641
        k(  455) = (   0.2548167   0.7211043  -0.3325338), wk =   0.0025641
        k(  456) = (   0.3001622   0.7211043  -0.1662669), wk =   0.0025641
        k(  457) = (   0.3455077   0.9013803   0.0000000), wk =   0.0025641
        k(  458) = (   0.3908532   0.9013803   0.1662669), wk =   0.0025641
        k(  459) = (   0.4361988   0.9013803   0.3325338), wk =   0.0025641
        k(  460) = (   0.4815443   0.9013803   0.4988008), wk =   0.0025641
        k(  461) = (   0.5268898   0.9013803   0.6650677), wk =   0.0025641
        k(  462) = (   0.5722353   0.9013803   0.8313346), wk =   0.0025641
        k(  463) = (   0.6175809   0.9013803   0.9976015), wk =   0.0025641
        k(  464) = (   0.0734345   0.9013803  -0.9976015), wk =   0.0025641
        k(  465) = (   0.1187801   0.9013803  -0.8313346), wk =   0.0025641
        k(  466) = (   0.1641256   0.9013803  -0.6650677), wk =   0.0025641
        k(  467) = (   0.2094711   0.9013803  -0.4988008), wk =   0.0025641
        k(  468) = (   0.2548167   0.9013803  -0.3325338), wk =   0.0025641
        k(  469) = (   0.3001622   0.9013803  -0.1662669), wk =   0.0025641
        k(  470) = (   0.3455077   1.0816564   0.0000000), wk =   0.0025641
        k(  471) = (   0.3908532   1.0816564   0.1662669), wk =   0.0025641
        k(  472) = (   0.4361988   1.0816564   0.3325338), wk =   0.0025641
        k(  473) = (   0.4815443   1.0816564   0.4988008), wk =   0.0025641
        k(  474) = (   0.5268898   1.0816564   0.6650677), wk =   0.0025641
        k(  475) = (   0.5722353   1.0816564   0.8313346), wk =   0.0025641
        k(  476) = (   0.6175809   1.0816564   0.9976015), wk =   0.0025641
        k(  477) = (   0.0734345   1.0816564  -0.9976015), wk =   0.0025641
        k(  478) = (   0.1187801   1.0816564  -0.8313346), wk =   0.0025641
        k(  479) = (   0.1641256   1.0816564  -0.6650677), wk =   0.0025641
        k(  480) = (   0.2094711   1.0816564  -0.4988008), wk =   0.0025641
        k(  481) = (   0.2548167   1.0816564  -0.3325338), wk =   0.0025641
        k(  482) = (   0.3001622   1.0816564  -0.1662669), wk =   0.0025641
        k(  483) = (   0.3455077   1.2619324   0.0000000), wk =   0.0025641
        k(  484) = (   0.3908532   1.2619324   0.1662669), wk =   0.0025641
        k(  485) = (   0.4361988   1.2619324   0.3325338), wk =   0.0025641
        k(  486) = (   0.4815443   1.2619324   0.4988008), wk =   0.0025641
        k(  487) = (   0.5268898   1.2619324   0.6650677), wk =   0.0025641
        k(  488) = (   0.5722353   1.2619324   0.8313346), wk =   0.0025641
        k(  489) = (   0.6175809   1.2619324   0.9976015), wk =   0.0025641
        k(  490) = (   0.0734345   1.2619324  -0.9976015), wk =   0.0025641
        k(  491) = (   0.1187801   1.2619324  -0.8313346), wk =   0.0025641
        k(  492) = (   0.1641256   1.2619324  -0.6650677), wk =   0.0025641
        k(  493) = (   0.2094711   1.2619324  -0.4988008), wk =   0.0025641
        k(  494) = (   0.2548167   1.2619324  -0.3325338), wk =   0.0025641
        k(  495) = (   0.3001622   1.2619324  -0.1662669), wk =   0.0025641
        k(  496) = (   0.3455077   1.4422085   0.0000000), wk =   0.0025641
        k(  497) = (   0.3908532   1.4422085   0.1662669), wk =   0.0025641
        k(  498) = (   0.4361988   1.4422085   0.3325338), wk =   0.0025641
        k(  499) = (   0.4815443   1.4422085   0.4988008), wk =   0.0025641
        k(  500) = (   0.5268898   1.4422085   0.6650677), wk =   0.0025641
        k(  501) = (   0.5722353   1.4422085   0.8313346), wk =   0.0025641
        k(  502) = (   0.6175809   1.4422085   0.9976015), wk =   0.0025641
        k(  503) = (   0.0734345   1.4422085  -0.9976015), wk =   0.0025641
        k(  504) = (   0.1187801   1.4422085  -0.8313346), wk =   0.0025641
        k(  505) = (   0.1641256   1.4422085  -0.6650677), wk =   0.0025641
        k(  506) = (   0.2094711   1.4422085  -0.4988008), wk =   0.0025641
        k(  507) = (   0.2548167   1.4422085  -0.3325338), wk =   0.0025641
        k(  508) = (   0.3001622   1.4422085  -0.1662669), wk =   0.0025641
        k(  509) = (   0.3455077   1.6224846   0.0000000), wk =   0.0025641
        k(  510) = (   0.3908532   1.6224846   0.1662669), wk =   0.0025641
        k(  511) = (   0.4361988   1.6224846   0.3325338), wk =   0.0025641
        k(  512) = (   0.4815443   1.6224846   0.4988008), wk =   0.0025641
        k(  513) = (   0.5268898   1.6224846   0.6650677), wk =   0.0025641
        k(  514) = (   0.5722353   1.6224846   0.8313346), wk =   0.0025641
        k(  515) = (   0.6175809   1.6224846   0.9976015), wk =   0.0025641
        k(  516) = (   0.0734345   1.6224846  -0.9976015), wk =   0.0025641
        k(  517) = (   0.1187801   1.6224846  -0.8313346), wk =   0.0025641
        k(  518) = (   0.1641256   1.6224846  -0.6650677), wk =   0.0025641
        k(  519) = (   0.2094711   1.6224846  -0.4988008), wk =   0.0025641
        k(  520) = (   0.2548167   1.6224846  -0.3325338), wk =   0.0025641
        k(  521) = (   0.3001622   1.6224846  -0.1662669), wk =   0.0025641
        k(  522) = (   0.3455077  -1.8027606   0.0000000), wk =   0.0025641
        k(  523) = (   0.3908532  -1.8027606   0.1662669), wk =   0.0025641
        k(  524) = (   0.4361988  -1.8027606   0.3325338), wk =   0.0025641
        k(  525) = (   0.4815443  -1.8027606   0.4988008), wk =   0.0025641
        k(  526) = (   0.5268898  -1.8027606   0.6650677), wk =   0.0025641
        k(  527) = (   0.5722353  -1.8027606   0.8313346), wk =   0.0025641
        k(  528) = (   0.6175809  -1.8027606   0.9976015), wk =   0.0025641
        k(  529) = (   0.0734345  -1.8027606  -0.9976015), wk =   0.0025641
        k(  530) = (   0.1187801  -1.8027606  -0.8313346), wk =   0.0025641
        k(  531) = (   0.1641256  -1.8027606  -0.6650677), wk =   0.0025641
        k(  532) = (   0.2094711  -1.8027606  -0.4988008), wk =   0.0025641
        k(  533) = (   0.2548167  -1.8027606  -0.3325338), wk =   0.0025641
        k(  534) = (   0.3001622  -1.8027606  -0.1662669), wk =   0.0025641
        k(  535) = (   0.3455077  -1.6224846   0.0000000), wk =   0.0025641
        k(  536) = (   0.3908532  -1.6224846   0.1662669), wk =   0.0025641
        k(  537) = (   0.4361988  -1.6224846   0.3325338), wk =   0.0025641
        k(  538) = (   0.4815443  -1.6224846   0.4988008), wk =   0.0025641
        k(  539) = (   0.5268898  -1.6224846   0.6650677), wk =   0.0025641
        k(  540) = (   0.5722353  -1.6224846   0.8313346), wk =   0.0025641
        k(  541) = (   0.6175809  -1.6224846   0.9976015), wk =   0.0025641
        k(  542) = (   0.0734345  -1.6224846  -0.9976015), wk =   0.0025641
        k(  543) = (   0.1187801  -1.6224846  -0.8313346), wk =   0.0025641
        k(  544) = (   0.1641256  -1.6224846  -0.6650677), wk =   0.0025641
        k(  545) = (   0.2094711  -1.6224846  -0.4988008), wk =   0.0025641
        k(  546) = (   0.2548167  -1.6224846  -0.3325338), wk =   0.0025641
        k(  547) = (   0.3001622  -1.6224846  -0.1662669), wk =   0.0025641
        k(  548) = (   0.3455077  -1.4422085   0.0000000), wk =   0.0025641
        k(  549) = (   0.3908532  -1.4422085   0.1662669), wk =   0.0025641
        k(  550) = (   0.4361988  -1.4422085   0.3325338), wk =   0.0025641
        k(  551) = (   0.4815443  -1.4422085   0.4988008), wk =   0.0025641
        k(  552) = (   0.5268898  -1.4422085   0.6650677), wk =   0.0025641
        k(  553) = (   0.5722353  -1.4422085   0.8313346), wk =   0.0025641
        k(  554) = (   0.6175809  -1.4422085   0.9976015), wk =   0.0025641
        k(  555) = (   0.0734345  -1.4422085  -0.9976015), wk =   0.0025641
        k(  556) = (   0.1187801  -1.4422085  -0.8313346), wk =   0.0025641
        k(  557) = (   0.1641256  -1.4422085  -0.6650677), wk =   0.0025641
        k(  558) = (   0.2094711  -1.4422085  -0.4988008), wk =   0.0025641
        k(  559) = (   0.2548167  -1.4422085  -0.3325338), wk =   0.0025641
        k(  560) = (   0.3001622  -1.4422085  -0.1662669), wk =   0.0025641
        k(  561) = (   0.3455077  -1.2619324   0.0000000), wk =   0.0025641
        k(  562) = (   0.3908532  -1.2619324   0.1662669), wk =   0.0025641
        k(  563) = (   0.4361988  -1.2619324   0.3325338), wk =   0.0025641
        k(  564) = (   0.4815443  -1.2619324   0.4988008), wk =   0.0025641
        k(  565) = (   0.5268898  -1.2619324   0.6650677), wk =   0.0025641
        k(  566) = (   0.5722353  -1.2619324   0.8313346), wk =   0.0025641
        k(  567) = (   0.6175809  -1.2619324   0.9976015), wk =   0.0025641
        k(  568) = (   0.0734345  -1.2619324  -0.9976015), wk =   0.0025641
        k(  569) = (   0.1187801  -1.2619324  -0.8313346), wk =   0.0025641
        k(  570) = (   0.1641256  -1.2619324  -0.6650677), wk =   0.0025641
        k(  571) = (   0.2094711  -1.2619324  -0.4988008), wk =   0.0025641
        k(  572) = (   0.2548167  -1.2619324  -0.3325338), wk =   0.0025641
        k(  573) = (   0.3001622  -1.2619324  -0.1662669), wk =   0.0025641
        k(  574) = (   0.3455077  -1.0816564   0.0000000), wk =   0.0025641
        k(  575) = (   0.3908532  -1.0816564   0.1662669), wk =   0.0025641
        k(  576) = (   0.4361988  -1.0816564   0.3325338), wk =   0.0025641
        k(  577) = (   0.4815443  -1.0816564   0.4988008), wk =   0.0025641
        k(  578) = (   0.5268898  -1.0816564   0.6650677), wk =   0.0025641
        k(  579) = (   0.5722353  -1.0816564   0.8313346), wk =   0.0025641
        k(  580) = (   0.6175809  -1.0816564   0.9976015), wk =   0.0025641
        k(  581) = (   0.0734345  -1.0816564  -0.9976015), wk =   0.0025641
        k(  582) = (   0.1187801  -1.0816564  -0.8313346), wk =   0.0025641
        k(  583) = (   0.1641256  -1.0816564  -0.6650677), wk =   0.0025641
        k(  584) = (   0.2094711  -1.0816564  -0.4988008), wk =   0.0025641
        k(  585) = (   0.2548167  -1.0816564  -0.3325338), wk =   0.0025641
        k(  586) = (   0.3001622  -1.0816564  -0.1662669), wk =   0.0025641
        k(  587) = (   0.3455077  -0.9013803   0.0000000), wk =   0.0025641
        k(  588) = (   0.3908532  -0.9013803   0.1662669), wk =   0.0025641
        k(  589) = (   0.4361988  -0.9013803   0.3325338), wk =   0.0025641
        k(  590) = (   0.4815443  -0.9013803   0.4988008), wk =   0.0025641
        k(  591) = (   0.5268898  -0.9013803   0.6650677), wk =   0.0025641
        k(  592) = (   0.5722353  -0.9013803   0.8313346), wk =   0.0025641
        k(  593) = (   0.6175809  -0.9013803   0.9976015), wk =   0.0025641
        k(  594) = (   0.0734345  -0.9013803  -0.9976015), wk =   0.0025641
        k(  595) = (   0.1187801  -0.9013803  -0.8313346), wk =   0.0025641
        k(  596) = (   0.1641256  -0.9013803  -0.6650677), wk =   0.0025641
        k(  597) = (   0.2094711  -0.9013803  -0.4988008), wk =   0.0025641
        k(  598) = (   0.2548167  -0.9013803  -0.3325338), wk =   0.0025641
        k(  599) = (   0.3001622  -0.9013803  -0.1662669), wk =   0.0025641
        k(  600) = (   0.3455077  -0.7211043   0.0000000), wk =   0.0025641
        k(  601) = (   0.3908532  -0.7211043   0.1662669), wk =   0.0025641
        k(  602) = (   0.4361988  -0.7211043   0.3325338), wk =   0.0025641
        k(  603) = (   0.4815443  -0.7211043   0.4988008), wk =   0.0025641
        k(  604) = (   0.5268898  -0.7211043   0.6650677), wk =   0.0025641
        k(  605) = (   0.5722353  -0.7211043   0.8313346), wk =   0.0025641
        k(  606) = (   0.6175809  -0.7211043   0.9976015), wk =   0.0025641
        k(  607) = (   0.0734345  -0.7211043  -0.9976015), wk =   0.0025641
        k(  608) = (   0.1187801  -0.7211043  -0.8313346), wk =   0.0025641
        k(  609) = (   0.1641256  -0.7211043  -0.6650677), wk =   0.0025641
        k(  610) = (   0.2094711  -0.7211043  -0.4988008), wk =   0.0025641
        k(  611) = (   0.2548167  -0.7211043  -0.3325338), wk =   0.0025641
        k(  612) = (   0.3001622  -0.7211043  -0.1662669), wk =   0.0025641
        k(  613) = (   0.3455077  -0.5408282   0.0000000), wk =   0.0025641
        k(  614) = (   0.3908532  -0.5408282   0.1662669), wk =   0.0025641
        k(  615) = (   0.4361988  -0.5408282   0.3325338), wk =   0.0025641
        k(  616) = (   0.4815443  -0.5408282   0.4988008), wk =   0.0025641
        k(  617) = (   0.5268898  -0.5408282   0.6650677), wk =   0.0025641
        k(  618) = (   0.5722353  -0.5408282   0.8313346), wk =   0.0025641
        k(  619) = (   0.6175809  -0.5408282   0.9976015), wk =   0.0025641
        k(  620) = (   0.0734345  -0.5408282  -0.9976015), wk =   0.0025641
        k(  621) = (   0.1187801  -0.5408282  -0.8313346), wk =   0.0025641
        k(  622) = (   0.1641256  -0.5408282  -0.6650677), wk =   0.0025641
        k(  623) = (   0.2094711  -0.5408282  -0.4988008), wk =   0.0025641
        k(  624) = (   0.2548167  -0.5408282  -0.3325338), wk =   0.0025641
        k(  625) = (   0.3001622  -0.5408282  -0.1662669), wk =   0.0025641
        k(  626) = (   0.3455077  -0.3605521   0.0000000), wk =   0.0025641
        k(  627) = (   0.3908532  -0.3605521   0.1662669), wk =   0.0025641
        k(  628) = (   0.4361988  -0.3605521   0.3325338), wk =   0.0025641
        k(  629) = (   0.4815443  -0.3605521   0.4988008), wk =   0.0025641
        k(  630) = (   0.5268898  -0.3605521   0.6650677), wk =   0.0025641
        k(  631) = (   0.5722353  -0.3605521   0.8313346), wk =   0.0025641
        k(  632) = (   0.6175809  -0.3605521   0.9976015), wk =   0.0025641
        k(  633) = (   0.0734345  -0.3605521  -0.9976015), wk =   0.0025641
        k(  634) = (   0.1187801  -0.3605521  -0.8313346), wk =   0.0025641
        k(  635) = (   0.1641256  -0.3605521  -0.6650677), wk =   0.0025641
        k(  636) = (   0.2094711  -0.3605521  -0.4988008), wk =   0.0025641
        k(  637) = (   0.2548167  -0.3605521  -0.3325338), wk =   0.0025641
        k(  638) = (   0.3001622  -0.3605521  -0.1662669), wk =   0.0025641
        k(  639) = (   0.3455077  -0.1802761   0.0000000), wk =   0.0025641
        k(  640) = (   0.3908532  -0.1802761   0.1662669), wk =   0.0025641
        k(  641) = (   0.4361988  -0.1802761   0.3325338), wk =   0.0025641
        k(  642) = (   0.4815443  -0.1802761   0.4988008), wk =   0.0025641
        k(  643) = (   0.5268898  -0.1802761   0.6650677), wk =   0.0025641
        k(  644) = (   0.5722353  -0.1802761   0.8313346), wk =   0.0025641
        k(  645) = (   0.6175809  -0.1802761   0.9976015), wk =   0.0025641
        k(  646) = (   0.0734345  -0.1802761  -0.9976015), wk =   0.0025641
        k(  647) = (   0.1187801  -0.1802761  -0.8313346), wk =   0.0025641
        k(  648) = (   0.1641256  -0.1802761  -0.6650677), wk =   0.0025641
        k(  649) = (   0.2094711  -0.1802761  -0.4988008), wk =   0.0025641
        k(  650) = (   0.2548167  -0.1802761  -0.3325338), wk =   0.0025641
        k(  651) = (   0.3001622  -0.1802761  -0.1662669), wk =   0.0025641
        k(  652) = (  -0.5182616   0.0000000   0.0000000), wk =   0.0012821
        k(  653) = (  -0.4729160   0.0000000   0.1662669), wk =   0.0025641
        k(  654) = (  -0.4275705   0.0000000   0.3325338), wk =   0.0025641
        k(  655) = (  -0.3822250   0.0000000   0.4988008), wk =   0.0025641
        k(  656) = (  -0.3368795   0.0000000   0.6650677), wk =   0.0025641
        k(  657) = (  -0.2915339   0.0000000   0.8313346), wk =   0.0025641
        k(  658) = (  -0.2461884   0.0000000   0.9976015), wk =   0.0025641
        k(  659) = (  -0.5182616   0.1802761   0.0000000), wk =   0.0025641
        k(  660) = (  -0.4729160   0.1802761   0.1662669), wk =   0.0025641
        k(  661) = (  -0.4275705   0.1802761   0.3325338), wk =   0.0025641
        k(  662) = (  -0.3822250   0.1802761   0.4988008), wk =   0.0025641
        k(  663) = (  -0.3368795   0.1802761   0.6650677), wk =   0.0025641
        k(  664) = (  -0.2915339   0.1802761   0.8313346), wk =   0.0025641
        k(  665) = (  -0.2461884   0.1802761   0.9976015), wk =   0.0025641
        k(  666) = (  -0.7903347   0.1802761  -0.9976015), wk =   0.0025641
        k(  667) = (  -0.7449892   0.1802761  -0.8313346), wk =   0.0025641
        k(  668) = (  -0.6996437   0.1802761  -0.6650677), wk =   0.0025641
        k(  669) = (  -0.6542981   0.1802761  -0.4988008), wk =   0.0025641
        k(  670) = (  -0.6089526   0.1802761  -0.3325338), wk =   0.0025641
        k(  671) = (  -0.5636071   0.1802761  -0.1662669), wk =   0.0025641
        k(  672) = (  -0.5182616   0.3605521   0.0000000), wk =   0.0025641
        k(  673) = (  -0.4729160   0.3605521   0.1662669), wk =   0.0025641
        k(  674) = (  -0.4275705   0.3605521   0.3325338), wk =   0.0025641
        k(  675) = (  -0.3822250   0.3605521   0.4988008), wk =   0.0025641
        k(  676) = (  -0.3368795   0.3605521   0.6650677), wk =   0.0025641
        k(  677) = (  -0.2915339   0.3605521   0.8313346), wk =   0.0025641
        k(  678) = (  -0.2461884   0.3605521   0.9976015), wk =   0.0025641
        k(  679) = (  -0.7903347   0.3605521  -0.9976015), wk =   0.0025641
        k(  680) = (  -0.7449892   0.3605521  -0.8313346), wk =   0.0025641
        k(  681) = (  -0.6996437   0.3605521  -0.6650677), wk =   0.0025641
        k(  682) = (  -0.6542981   0.3605521  -0.4988008), wk =   0.0025641
        k(  683) = (  -0.6089526   0.3605521  -0.3325338), wk =   0.0025641
        k(  684) = (  -0.5636071   0.3605521  -0.1662669), wk =   0.0025641
        k(  685) = (  -0.5182616   0.5408282   0.0000000), wk =   0.0025641
        k(  686) = (  -0.4729160   0.5408282   0.1662669), wk =   0.0025641
        k(  687) = (  -0.4275705   0.5408282   0.3325338), wk =   0.0025641
        k(  688) = (  -0.3822250   0.5408282   0.4988008), wk =   0.0025641
        k(  689) = (  -0.3368795   0.5408282   0.6650677), wk =   0.0025641
        k(  690) = (  -0.2915339   0.5408282   0.8313346), wk =   0.0025641
        k(  691) = (  -0.2461884   0.5408282   0.9976015), wk =   0.0025641
        k(  692) = (  -0.7903347   0.5408282  -0.9976015), wk =   0.0025641
        k(  693) = (  -0.7449892   0.5408282  -0.8313346), wk =   0.0025641
        k(  694) = (  -0.6996437   0.5408282  -0.6650677), wk =   0.0025641
        k(  695) = (  -0.6542981   0.5408282  -0.4988008), wk =   0.0025641
        k(  696) = (  -0.6089526   0.5408282  -0.3325338), wk =   0.0025641
        k(  697) = (  -0.5636071   0.5408282  -0.1662669), wk =   0.0025641
        k(  698) = (  -0.5182616   0.7211043   0.0000000), wk =   0.0025641
        k(  699) = (  -0.4729160   0.7211043   0.1662669), wk =   0.0025641
        k(  700) = (  -0.4275705   0.7211043   0.3325338), wk =   0.0025641
        k(  701) = (  -0.3822250   0.7211043   0.4988008), wk =   0.0025641
        k(  702) = (  -0.3368795   0.7211043   0.6650677), wk =   0.0025641
        k(  703) = (  -0.2915339   0.7211043   0.8313346), wk =   0.0025641
        k(  704) = (  -0.2461884   0.7211043   0.9976015), wk =   0.0025641
        k(  705) = (  -0.7903347   0.7211043  -0.9976015), wk =   0.0025641
        k(  706) = (  -0.7449892   0.7211043  -0.8313346), wk =   0.0025641
        k(  707) = (  -0.6996437   0.7211043  -0.6650677), wk =   0.0025641
        k(  708) = (  -0.6542981   0.7211043  -0.4988008), wk =   0.0025641
        k(  709) = (  -0.6089526   0.7211043  -0.3325338), wk =   0.0025641
        k(  710) = (  -0.5636071   0.7211043  -0.1662669), wk =   0.0025641
        k(  711) = (  -0.5182616   0.9013803   0.0000000), wk =   0.0025641
        k(  712) = (  -0.4729160   0.9013803   0.1662669), wk =   0.0025641
        k(  713) = (  -0.4275705   0.9013803   0.3325338), wk =   0.0025641
        k(  714) = (  -0.3822250   0.9013803   0.4988008), wk =   0.0025641
        k(  715) = (  -0.3368795   0.9013803   0.6650677), wk =   0.0025641
        k(  716) = (  -0.2915339   0.9013803   0.8313346), wk =   0.0025641
        k(  717) = (  -0.2461884   0.9013803   0.9976015), wk =   0.0025641
        k(  718) = (  -0.7903347   0.9013803  -0.9976015), wk =   0.0025641
        k(  719) = (  -0.7449892   0.9013803  -0.8313346), wk =   0.0025641
        k(  720) = (  -0.6996437   0.9013803  -0.6650677), wk =   0.0025641
        k(  721) = (  -0.6542981   0.9013803  -0.4988008), wk =   0.0025641
        k(  722) = (  -0.6089526   0.9013803  -0.3325338), wk =   0.0025641
        k(  723) = (  -0.5636071   0.9013803  -0.1662669), wk =   0.0025641
        k(  724) = (  -0.5182616   1.0816564   0.0000000), wk =   0.0025641
        k(  725) = (  -0.4729160   1.0816564   0.1662669), wk =   0.0025641
        k(  726) = (  -0.4275705   1.0816564   0.3325338), wk =   0.0025641
        k(  727) = (  -0.3822250   1.0816564   0.4988008), wk =   0.0025641
        k(  728) = (  -0.3368795   1.0816564   0.6650677), wk =   0.0025641
        k(  729) = (  -0.2915339   1.0816564   0.8313346), wk =   0.0025641
        k(  730) = (  -0.2461884   1.0816564   0.9976015), wk =   0.0025641
        k(  731) = (  -0.7903347   1.0816564  -0.9976015), wk =   0.0025641
        k(  732) = (  -0.7449892   1.0816564  -0.8313346), wk =   0.0025641
        k(  733) = (  -0.6996437   1.0816564  -0.6650677), wk =   0.0025641
        k(  734) = (  -0.6542981   1.0816564  -0.4988008), wk =   0.0025641
        k(  735) = (  -0.6089526   1.0816564  -0.3325338), wk =   0.0025641
        k(  736) = (  -0.5636071   1.0816564  -0.1662669), wk =   0.0025641
        k(  737) = (  -0.5182616   1.2619324   0.0000000), wk =   0.0025641
        k(  738) = (  -0.4729160   1.2619324   0.1662669), wk =   0.0025641
        k(  739) = (  -0.4275705   1.2619324   0.3325338), wk =   0.0025641
        k(  740) = (  -0.3822250   1.2619324   0.4988008), wk =   0.0025641
        k(  741) = (  -0.3368795   1.2619324   0.6650677), wk =   0.0025641
        k(  742) = (  -0.2915339   1.2619324   0.8313346), wk =   0.0025641
        k(  743) = (  -0.2461884   1.2619324   0.9976015), wk =   0.0025641
        k(  744) = (  -0.7903347   1.2619324  -0.9976015), wk =   0.0025641
        k(  745) = (  -0.7449892   1.2619324  -0.8313346), wk =   0.0025641
        k(  746) = (  -0.6996437   1.2619324  -0.6650677), wk =   0.0025641
        k(  747) = (  -0.6542981   1.2619324  -0.4988008), wk =   0.0025641
        k(  748) = (  -0.6089526   1.2619324  -0.3325338), wk =   0.0025641
        k(  749) = (  -0.5636071   1.2619324  -0.1662669), wk =   0.0025641
        k(  750) = (  -0.5182616   1.4422085   0.0000000), wk =   0.0025641
        k(  751) = (  -0.4729160   1.4422085   0.1662669), wk =   0.0025641
        k(  752) = (  -0.4275705   1.4422085   0.3325338), wk =   0.0025641
        k(  753) = (  -0.3822250   1.4422085   0.4988008), wk =   0.0025641
        k(  754) = (  -0.3368795   1.4422085   0.6650677), wk =   0.0025641
        k(  755) = (  -0.2915339   1.4422085   0.8313346), wk =   0.0025641
        k(  756) = (  -0.2461884   1.4422085   0.9976015), wk =   0.0025641
        k(  757) = (  -0.7903347   1.4422085  -0.9976015), wk =   0.0025641
        k(  758) = (  -0.7449892   1.4422085  -0.8313346), wk =   0.0025641
        k(  759) = (  -0.6996437   1.4422085  -0.6650677), wk =   0.0025641
        k(  760) = (  -0.6542981   1.4422085  -0.4988008), wk =   0.0025641
        k(  761) = (  -0.6089526   1.4422085  -0.3325338), wk =   0.0025641
        k(  762) = (  -0.5636071   1.4422085  -0.1662669), wk =   0.0025641
        k(  763) = (  -0.5182616   1.6224846   0.0000000), wk =   0.0025641
        k(  764) = (  -0.4729160   1.6224846   0.1662669), wk =   0.0025641
        k(  765) = (  -0.4275705   1.6224846   0.3325338), wk =   0.0025641
        k(  766) = (  -0.3822250   1.6224846   0.4988008), wk =   0.0025641
        k(  767) = (  -0.3368795   1.6224846   0.6650677), wk =   0.0025641
        k(  768) = (  -0.2915339   1.6224846   0.8313346), wk =   0.0025641
        k(  769) = (  -0.2461884   1.6224846   0.9976015), wk =   0.0025641
        k(  770) = (  -0.7903347   1.6224846  -0.9976015), wk =   0.0025641
        k(  771) = (  -0.7449892   1.6224846  -0.8313346), wk =   0.0025641
        k(  772) = (  -0.6996437   1.6224846  -0.6650677), wk =   0.0025641
        k(  773) = (  -0.6542981   1.6224846  -0.4988008), wk =   0.0025641
        k(  774) = (  -0.6089526   1.6224846  -0.3325338), wk =   0.0025641
        k(  775) = (  -0.5636071   1.6224846  -0.1662669), wk =   0.0025641
        k(  776) = (  -0.5182616  -1.8027606   0.0000000), wk =   0.0012821
        k(  777) = (  -0.4729160  -1.8027606   0.1662669), wk =   0.0025641
        k(  778) = (  -0.4275705  -1.8027606   0.3325338), wk =   0.0025641
        k(  779) = (  -0.3822250  -1.8027606   0.4988008), wk =   0.0025641
        k(  780) = (  -0.3368795  -1.8027606   0.6650677), wk =   0.0025641
        k(  781) = (  -0.2915339  -1.8027606   0.8313346), wk =   0.0025641
        k(  782) = (  -0.2461884  -1.8027606   0.9976015), wk =   0.0025641

                       cryst. coord.
        k(    1) = (   0.0000000   0.0000000   0.0000000), wk =   0.0012821
        k(    2) = (  -0.0000000   0.0000000   0.0769231), wk =   0.0025641
        k(    3) = (  -0.0000000   0.0000000   0.1538462), wk =   0.0025641
        k(    4) = (  -0.0000000   0.0000000   0.2307692), wk =   0.0025641
        k(    5) = (  -0.0000000   0.0000000   0.3076923), wk =   0.0025641
        k(    6) = (  -0.0000000   0.0000000   0.3846154), wk =   0.0025641
        k(    7) = (  -0.0000000   0.0000000   0.4615385), wk =   0.0025641
        k(    8) = (   0.0000000   0.0500000   0.0000000), wk =   0.0025641
        k(    9) = (  -0.0000000   0.0500000   0.0769231), wk =   0.0025641
        k(   10) = (  -0.0000000   0.0500000   0.1538462), wk =   0.0025641
        k(   11) = (  -0.0000000   0.0500000   0.2307692), wk =   0.0025641
        k(   12) = (  -0.0000000   0.0500000   0.3076923), wk =   0.0025641
        k(   13) = (  -0.0000000   0.0500000   0.3846154), wk =   0.0025641
        k(   14) = (  -0.0000000   0.0500000   0.4615385), wk =   0.0025641
        k(   15) = (   0.0000000   0.0500000  -0.4615385), wk =   0.0025641
        k(   16) = (   0.0000000   0.0500000  -0.3846154), wk =   0.0025641
        k(   17) = (   0.0000000   0.0500000  -0.3076923), wk =   0.0025641
        k(   18) = (   0.0000000   0.0500000  -0.2307692), wk =   0.0025641
        k(   19) = (   0.0000000   0.0500000  -0.1538462), wk =   0.0025641
        k(   20) = (   0.0000000   0.0500000  -0.0769231), wk =   0.0025641
        k(   21) = (   0.0000000   0.1000000   0.0000000), wk =   0.0025641
        k(   22) = (  -0.0000000   0.1000000   0.0769231), wk =   0.0025641
        k(   23) = (  -0.0000000   0.1000000   0.1538462), wk =   0.0025641
        k(   24) = (  -0.0000000   0.1000000   0.2307692), wk =   0.0025641
        k(   25) = (  -0.0000000   0.1000000   0.3076923), wk =   0.0025641
        k(   26) = (  -0.0000000   0.1000000   0.3846154), wk =   0.0025641
        k(   27) = (  -0.0000000   0.1000000   0.4615385), wk =   0.0025641
        k(   28) = (   0.0000000   0.1000000  -0.4615385), wk =   0.0025641
        k(   29) = (   0.0000000   0.1000000  -0.3846154), wk =   0.0025641
        k(   30) = (   0.0000000   0.1000000  -0.3076923), wk =   0.0025641
        k(   31) = (   0.0000000   0.1000000  -0.2307692), wk =   0.0025641
        k(   32) = (   0.0000000   0.1000000  -0.1538462), wk =   0.0025641
        k(   33) = (   0.0000000   0.1000000  -0.0769231), wk =   0.0025641
        k(   34) = (   0.0000000   0.1500000   0.0000000), wk =   0.0025641
        k(   35) = (  -0.0000000   0.1500000   0.0769231), wk =   0.0025641
        k(   36) = (  -0.0000000   0.1500000   0.1538462), wk =   0.0025641
        k(   37) = (  -0.0000000   0.1500000   0.2307692), wk =   0.0025641
        k(   38) = (  -0.0000000   0.1500000   0.3076923), wk =   0.0025641
        k(   39) = (  -0.0000000   0.1500000   0.3846154), wk =   0.0025641
        k(   40) = (  -0.0000000   0.1500000   0.4615385), wk =   0.0025641
        k(   41) = (   0.0000000   0.1500000  -0.4615385), wk =   0.0025641
        k(   42) = (   0.0000000   0.1500000  -0.3846154), wk =   0.0025641
        k(   43) = (   0.0000000   0.1500000  -0.3076923), wk =   0.0025641
        k(   44) = (   0.0000000   0.1500000  -0.2307692), wk =   0.0025641
        k(   45) = (   0.0000000   0.1500000  -0.1538462), wk =   0.0025641
        k(   46) = (   0.0000000   0.1500000  -0.0769231), wk =   0.0025641
        k(   47) = (   0.0000000   0.2000000   0.0000000), wk =   0.0025641
        k(   48) = (  -0.0000000   0.2000000   0.0769231), wk =   0.0025641
        k(   49) = (  -0.0000000   0.2000000   0.1538462), wk =   0.0025641
        k(   50) = (  -0.0000000   0.2000000   0.2307692), wk =   0.0025641
        k(   51) = (  -0.0000000   0.2000000   0.3076923), wk =   0.0025641
        k(   52) = (  -0.0000000   0.2000000   0.3846154), wk =   0.0025641
        k(   53) = (  -0.0000000   0.2000000   0.4615385), wk =   0.0025641
        k(   54) = (   0.0000000   0.2000000  -0.4615385), wk =   0.0025641
        k(   55) = (   0.0000000   0.2000000  -0.3846154), wk =   0.0025641
        k(   56) = (   0.0000000   0.2000000  -0.3076923), wk =   0.0025641
        k(   57) = (   0.0000000   0.2000000  -0.2307692), wk =   0.0025641
        k(   58) = (   0.0000000   0.2000000  -0.1538462), wk =   0.0025641
        k(   59) = (   0.0000000   0.2000000  -0.0769231), wk =   0.0025641
        k(   60) = (   0.0000000   0.2500000   0.0000000), wk =   0.0025641
        k(   61) = (  -0.0000000   0.2500000   0.0769231), wk =   0.0025641
        k(   62) = (  -0.0000000   0.2500000   0.1538462), wk =   0.0025641
        k(   63) = (  -0.0000000   0.2500000   0.2307692), wk =   0.0025641
        k(   64) = (  -0.0000000   0.2500000   0.3076923), wk =   0.0025641
        k(   65) = (  -0.0000000   0.2500000   0.3846154), wk =   0.0025641
        k(   66) = (  -0.0000000   0.2500000   0.4615385), wk =   0.0025641
        k(   67) = (   0.0000000   0.2500000  -0.4615385), wk =   0.0025641
        k(   68) = (   0.0000000   0.2500000  -0.3846154), wk =   0.0025641
        k(   69) = (   0.0000000   0.2500000  -0.3076923), wk =   0.0025641
        k(   70) = (   0.0000000   0.2500000  -0.2307692), wk =   0.0025641
        k(   71) = (   0.0000000   0.2500000  -0.1538462), wk =   0.0025641
        k(   72) = (   0.0000000   0.2500000  -0.0769231), wk =   0.0025641
        k(   73) = (   0.0000000   0.3000000   0.0000000), wk =   0.0025641
        k(   74) = (  -0.0000000   0.3000000   0.0769231), wk =   0.0025641
        k(   75) = (  -0.0000000   0.3000000   0.1538462), wk =   0.0025641
        k(   76) = (  -0.0000000   0.3000000   0.2307692), wk =   0.0025641
        k(   77) = (  -0.0000000   0.3000000   0.3076923), wk =   0.0025641
        k(   78) = (  -0.0000000   0.3000000   0.3846154), wk =   0.0025641
        k(   79) = (  -0.0000000   0.3000000   0.4615385), wk =   0.0025641
        k(   80) = (   0.0000000   0.3000000  -0.4615385), wk =   0.0025641
        k(   81) = (   0.0000000   0.3000000  -0.3846154), wk =   0.0025641
        k(   82) = (   0.0000000   0.3000000  -0.3076923), wk =   0.0025641
        k(   83) = (   0.0000000   0.3000000  -0.2307692), wk =   0.0025641
        k(   84) = (   0.0000000   0.3000000  -0.1538462), wk =   0.0025641
        k(   85) = (   0.0000000   0.3000000  -0.0769231), wk =   0.0025641
        k(   86) = (   0.0000000   0.3500000   0.0000000), wk =   0.0025641
        k(   87) = (  -0.0000000   0.3500000   0.0769231), wk =   0.0025641
        k(   88) = (  -0.0000000   0.3500000   0.1538462), wk =   0.0025641
        k(   89) = (  -0.0000000   0.3500000   0.2307692), wk =   0.0025641
        k(   90) = (  -0.0000000   0.3500000   0.3076923), wk =   0.0025641
        k(   91) = (  -0.0000000   0.3500000   0.3846154), wk =   0.0025641
        k(   92) = (  -0.0000000   0.3500000   0.4615385), wk =   0.0025641
        k(   93) = (   0.0000000   0.3500000  -0.4615385), wk =   0.0025641
        k(   94) = (   0.0000000   0.3500000  -0.3846154), wk =   0.0025641
        k(   95) = (   0.0000000   0.3500000  -0.3076923), wk =   0.0025641
        k(   96) = (   0.0000000   0.3500000  -0.2307692), wk =   0.0025641
        k(   97) = (   0.0000000   0.3500000  -0.1538462), wk =   0.0025641
        k(   98) = (   0.0000000   0.3500000  -0.0769231), wk =   0.0025641
        k(   99) = (   0.0000000   0.4000000   0.0000000), wk =   0.0025641
        k(  100) = (  -0.0000000   0.4000000   0.0769231), wk =   0.0025641
        k(  101) = (  -0.0000000   0.4000000   0.1538462), wk =   0.0025641
        k(  102) = (  -0.0000000   0.4000000   0.2307692), wk =   0.0025641
        k(  103) = (  -0.0000000   0.4000000   0.3076923), wk =   0.0025641
        k(  104) = (  -0.0000000   0.4000000   0.3846154), wk =   0.0025641
        k(  105) = (  -0.0000000   0.4000000   0.4615385), wk =   0.0025641
        k(  106) = (   0.0000000   0.4000000  -0.4615385), wk =   0.0025641
        k(  107) = (   0.0000000   0.4000000  -0.3846154), wk =   0.0025641
        k(  108) = (   0.0000000   0.4000000  -0.3076923), wk =   0.0025641
        k(  109) = (   0.0000000   0.4000000  -0.2307692), wk =   0.0025641
        k(  110) = (   0.0000000   0.4000000  -0.1538462), wk =   0.0025641
        k(  111) = (   0.0000000   0.4000000  -0.0769231), wk =   0.0025641
        k(  112) = (   0.0000000   0.4500000   0.0000000), wk =   0.0025641
        k(  113) = (  -0.0000000   0.4500000   0.0769231), wk =   0.0025641
        k(  114) = (  -0.0000000   0.4500000   0.1538462), wk =   0.0025641
        k(  115) = (  -0.0000000   0.4500000   0.2307692), wk =   0.0025641
        k(  116) = (  -0.0000000   0.4500000   0.3076923), wk =   0.0025641
        k(  117) = (  -0.0000000   0.4500000   0.3846154), wk =   0.0025641
        k(  118) = (  -0.0000000   0.4500000   0.4615385), wk =   0.0025641
        k(  119) = (   0.0000000   0.4500000  -0.4615385), wk =   0.0025641
        k(  120) = (   0.0000000   0.4500000  -0.3846154), wk =   0.0025641
        k(  121) = (   0.0000000   0.4500000  -0.3076923), wk =   0.0025641
        k(  122) = (   0.0000000   0.4500000  -0.2307692), wk =   0.0025641
        k(  123) = (   0.0000000   0.4500000  -0.1538462), wk =   0.0025641
        k(  124) = (   0.0000000   0.4500000  -0.0769231), wk =   0.0025641
        k(  125) = (   0.0000000  -0.5000000   0.0000000), wk =   0.0012821
        k(  126) = (  -0.0000000  -0.5000000   0.0769231), wk =   0.0025641
        k(  127) = (  -0.0000000  -0.5000000   0.1538462), wk =   0.0025641
        k(  128) = (  -0.0000000  -0.5000000   0.2307692), wk =   0.0025641
        k(  129) = (  -0.0000000  -0.5000000   0.3076923), wk =   0.0025641
        k(  130) = (  -0.0000000  -0.5000000   0.3846154), wk =   0.0025641
        k(  131) = (  -0.0000000  -0.5000000   0.4615385), wk =   0.0025641
        k(  132) = (   0.1666667   0.0000000   0.0000000), wk =   0.0025641
        k(  133) = (   0.1666667   0.0000000   0.0769231), wk =   0.0025641
        k(  134) = (   0.1666667   0.0000000   0.1538462), wk =   0.0025641
        k(  135) = (   0.1666667   0.0000000   0.2307692), wk =   0.0025641
        k(  136) = (   0.1666667   0.0000000   0.3076923), wk =   0.0025641
        k(  137) = (   0.1666667   0.0000000   0.3846154), wk =   0.0025641
        k(  138) = (   0.1666667   0.0000000   0.4615385), wk =   0.0025641
        k(  139) = (   0.1666667   0.0000000  -0.4615385), wk =   0.0025641
        k(  140) = (   0.1666667   0.0000000  -0.3846154), wk =   0.0025641
        k(  141) = (   0.1666667   0.0000000  -0.3076923), wk =   0.0025641
        k(  142) = (   0.1666667   0.0000000  -0.2307692), wk =   0.0025641
        k(  143) = (   0.1666667   0.0000000  -0.1538462), wk =   0.0025641
[...]

          k =-0.2462-1.8028 0.9976 ( 11176 PWs)   bands (ev):

    -2.7433  -2.7433  -1.9529  -1.9529  -1.5136  -1.5136  -0.9943  -0.9943
     0.3799   0.3799   1.0348   1.0349   1.2178   1.2178   2.1739   2.1739
     2.2580   2.2580   3.3768   3.3768   3.6285   3.6285   4.0651   4.0651
     4.3595   4.3595   4.8642   4.8642   5.5096   5.5096   6.2362   6.2362
     6.5828   6.5828   6.9280   6.9280   7.1247   7.1247   7.3752   7.3752

     occupation numbers 
     1.0000   1.0000   1.0000   1.0000   1.0000   1.0000   1.0000   1.0000
     1.0000   1.0000   1.0000   1.0000   1.0000   1.0000   1.0000   1.0000
     1.0000   1.0000   1.0000   1.0000   1.0000   1.0000   1.0000   1.0000
     1.0000   1.0000   1.0000   1.0000   1.0012   1.0012   1.0350   1.0350
     0.9617   0.9617   0.6091   0.6091   0.3362   0.3362   0.0733   0.0733

     the Fermi energy is     7.0060 ev

!    total energy              =    -597.35419267 Ry
     Harris-Foulkes estimate   =    -597.35419267 Ry
     estimated scf accuracy    <          7.9E-13 Ry

     The total energy is the sum of the following terms:

     one-electron contribution =      50.24856836 Ry
     hartree contribution      =       6.60000314 Ry
     xc contribution           =     -78.08827861 Ry
     ewald contribution        =    -117.72437294 Ry
     one-center paw contrib.   =    -458.38759852 Ry
      -> PAW hartree energy AE =       1.28062398 Ry
      -> PAW hartree energy PS =      -1.27615179 Ry
      -> PAW xc energy AE      =     -36.52480971 Ry
      -> PAW xc energy PS      =       1.84560356 Ry
      -> total E_H with PAW    =       6.60447534 Ry
      -> total E_XC with PAW   =    -112.76748477 Ry
     smearing contrib. (-TS)   =      -0.00251410 Ry

     convergence has been achieved in  16 iterations

     Forces acting on atoms (cartesian axes, Ry/au):

     atom    1 type  1   force =    -0.00000008    0.00000001   -0.00000417
     atom    2 type  2   force =    -0.00068803    0.00000001   -0.00002484
     atom    3 type  2   force =    -0.00146336    0.00000003   -0.00066890
     atom    4 type  2   force =     0.00146054   -0.00000003    0.00066749
     atom    5 type  2   force =     0.00069121   -0.00000000    0.00002429
     atom    6 type  3   force =    -0.00065514    0.00000000   -0.00053010
     atom    7 type  3   force =     0.00011640   -0.00000019    0.00066260
     atom    8 type  1   force =    -0.00057253   -0.00000006   -0.00126594
     atom    9 type  1   force =     0.00057211    0.00000006    0.00126594
     atom   10 type  3   force =    -0.00011624    0.00000014   -0.00066275
     atom   11 type  3   force =     0.00065471    0.00000002    0.00053027
     atom   12 type  1   force =    -0.00000056   -0.00000001    0.00000450
     atom   13 type  2   force =    -0.00069003    0.00000001   -0.00004254
     atom   14 type  2   force =    -0.00146841    0.00000003   -0.00065645
     atom   15 type  2   force =     0.00146516   -0.00000002    0.00065609
     atom   16 type  2   force =     0.00069370   -0.00000001    0.00004228
     atom   17 type  3   force =    -0.00064302   -0.00000009   -0.00052545
     atom   18 type  3   force =     0.00013047   -0.00000009    0.00064991
     atom   19 type  1   force =    -0.00058192   -0.00000006   -0.00127610
     atom   20 type  1   force =     0.00058213    0.00000005    0.00127695
     atom   21 type  3   force =    -0.00013008    0.00000015   -0.00064919
     atom   22 type  3   force =     0.00064295    0.00000006    0.00052611
     The non-local contrib.  to forces
     atom    1 type  1   force =     0.00000102    0.00000003   -0.00001060
     atom    2 type  2   force =     0.01459663   -0.00000007    0.00880315
     atom    3 type  2   force =     0.00518774   -0.00000012    0.00934956
     atom    4 type  2   force =    -0.00520282    0.00000012   -0.00936479
     atom    5 type  2   force =    -0.01459271    0.00000001   -0.00882364
     atom    6 type  3   force =    -0.02904671    0.00000012   -0.04006208
     atom    7 type  3   force =     0.00121757   -0.00000008    0.02352029
     atom    8 type  1   force =     0.01087085    0.00000003   -0.00742894
     atom    9 type  1   force =    -0.01087224   -0.00000006    0.00742139
     atom   10 type  3   force =    -0.00120540    0.00000004   -0.02349672
     atom   11 type  3   force =     0.02904983   -0.00000011    0.04005709
     atom   12 type  1   force =    -0.00000205    0.00000003    0.00000130
     atom   13 type  2   force =     0.01459081   -0.00000006    0.00873383
     atom   14 type  2   force =     0.00517240   -0.00000008    0.00938468
     atom   15 type  2   force =    -0.00518983    0.00000004   -0.00939574
     atom   16 type  2   force =    -0.01458462    0.00000015   -0.00875308
     atom   17 type  3   force =    -0.02902789    0.00000011   -0.04005794
     atom   18 type  3   force =     0.00125410    0.00000005    0.02348523
     atom   19 type  1   force =     0.01084587    0.00000009   -0.00744435
     atom   20 type  1   force =    -0.01084656   -0.00000008    0.00743863
     atom   21 type  3   force =    -0.00124085   -0.00000002   -0.02345933
     atom   22 type  3   force =     0.02903113   -0.00000014    0.04005315
     The ionic contribution  to forces
     atom    1 type  1   force =    -0.00005548   -0.00000000    0.00001858
     atom    2 type  2   force =    -0.07131810    0.00000000   -0.13212762
     atom    3 type  2   force =    -0.01388564    0.00000000    0.09164712
     atom    4 type  2   force =     0.01388598   -0.00000000   -0.09168292
     atom    5 type  2   force =     0.07132591   -0.00000000    0.13211237
     atom    6 type  3   force =     0.26671769   -0.00000000    0.52703817
     atom    7 type  3   force =    -0.17946050   -0.00000000   -0.64133579
     atom    8 type  1   force =    -0.00584873   -0.00000000    0.29097685
     atom    9 type  1   force =     0.00584775    0.00000000   -0.29103625
     atom   10 type  3   force =     0.17952147    0.00000000    0.64143996
     atom   11 type  3   force =    -0.26675417    0.00000000   -0.52703519
     atom   12 type  1   force =    -0.00004618    0.00000000   -0.00001507
     atom   13 type  2   force =    -0.07126987   -0.00000000   -0.13218233
     atom   14 type  2   force =    -0.01383445   -0.00000000    0.09171535
     atom   15 type  2   force =     0.01384037    0.00000000   -0.09174756
     atom   16 type  2   force =     0.07128117    0.00000000    0.13216841
     atom   17 type  3   force =     0.26674936    0.00000000    0.52710185
     atom   18 type  3   force =    -0.17952660    0.00000000   -0.64130740
     atom   19 type  1   force =    -0.00583562    0.00000000    0.29103479
     atom   20 type  1   force =     0.00583913   -0.00000000   -0.29109988
     atom   21 type  3   force =     0.17960460   -0.00000000    0.64141757
     atom   22 type  3   force =    -0.26677809   -0.00000000   -0.52710102
     The local contribution  to forces
     atom    1 type  1   force =     0.00005420   -0.00000001   -0.00001585
     atom    2 type  2   force =     0.05785841    0.00000007    0.12431677
     atom    3 type  2   force =     0.00788502    0.00000014   -0.10036734
     atom    4 type  2   force =    -0.00787541   -0.00000014    0.10040990
     atom    5 type  2   force =    -0.05786695   -0.00000001   -0.12428915
     atom    6 type  3   force =    -0.24121469   -0.00000010   -0.49142145
     atom    7 type  3   force =     0.17841928   -0.00000012    0.62076326
     atom    8 type  1   force =    -0.00430367   -0.00000009   -0.28546103
     atom    9 type  1   force =     0.00430470    0.00000011    0.28552171
     atom   10 type  3   force =    -0.17848288    0.00000011   -0.62086577
     atom   11 type  3   force =     0.24124631    0.00000012    0.49142279
     atom   12 type  1   force =     0.00004687   -0.00000003    0.00001565
     atom   13 type  2   force =     0.05781381    0.00000007    0.12441502
     atom   14 type  2   force =     0.00784262    0.00000010   -0.10045412
     atom   15 type  2   force =    -0.00783687   -0.00000006    0.10049042
     atom   16 type  2   force =    -0.05782734   -0.00000015   -0.12438953
     atom   17 type  3   force =    -0.24125076   -0.00000018   -0.49148442
     atom   18 type  3   force =     0.17846705   -0.00000014    0.62075365
     atom   19 type  1   force =    -0.00430404   -0.00000014   -0.28551544
     atom   20 type  1   force =     0.00430067    0.00000013    0.28558105
     atom   21 type  3   force =    -0.17854812    0.00000017   -0.62086334
     atom   22 type  3   force =     0.24127484    0.00000019    0.49148791
     The core correction contribution to forces
     atom    1 type  1   force =    -0.00000017   -0.00000000    0.00000107
     atom    2 type  2   force =    -0.00182538    0.00000001   -0.00101960
     atom    3 type  2   force =    -0.00065087    0.00000001   -0.00130094
     atom    4 type  2   force =     0.00065256   -0.00000001    0.00130279
     atom    5 type  2   force =     0.00182478   -0.00000000    0.00102194
     atom    6 type  3   force =     0.00288801   -0.00000001    0.00391235
     atom    7 type  3   force =    -0.00006028    0.00000001   -0.00228764
     atom    8 type  1   force =    -0.00129148   -0.00000000    0.00064456
     atom    9 type  1   force =     0.00129174    0.00000001   -0.00064353
     atom   10 type  3   force =     0.00005020   -0.00000000    0.00225705
     atom   11 type  3   force =    -0.00288728    0.00000001   -0.00391672
     atom   12 type  1   force =     0.00000057   -0.00000000    0.00000003
     atom   13 type  2   force =    -0.00182508    0.00000001   -0.00101151
     atom   14 type  2   force =    -0.00064930    0.00000001   -0.00130507
     atom   15 type  2   force =     0.00065125   -0.00000000    0.00130646
     atom   16 type  2   force =     0.00182422   -0.00000002    0.00101373
     atom   17 type  3   force =     0.00288595   -0.00000001    0.00391206
     atom   18 type  3   force =    -0.00006423   -0.00000001   -0.00228392
     atom   19 type  1   force =    -0.00128854   -0.00000001    0.00064622
     atom   20 type  1   force =     0.00128874    0.00000001   -0.00064538
     atom   21 type  3   force =     0.00005391    0.00000000    0.00225306
     atom   22 type  3   force =    -0.00288515    0.00000002   -0.00391618
     The Hubbard contrib.    to forces
     atom    1 type  1   force =     0.00000000    0.00000000    0.00000000
     atom    2 type  2   force =     0.00000000    0.00000000    0.00000000
     atom    3 type  2   force =     0.00000000    0.00000000    0.00000000
     atom    4 type  2   force =     0.00000000    0.00000000    0.00000000
     atom    5 type  2   force =     0.00000000    0.00000000    0.00000000
     atom    6 type  3   force =     0.00000000    0.00000000    0.00000000
     atom    7 type  3   force =     0.00000000    0.00000000    0.00000000
     atom    8 type  1   force =     0.00000000    0.00000000    0.00000000
     atom    9 type  1   force =     0.00000000    0.00000000    0.00000000
     atom   10 type  3   force =     0.00000000    0.00000000    0.00000000
     atom   11 type  3   force =     0.00000000    0.00000000    0.00000000
     atom   12 type  1   force =     0.00000000    0.00000000    0.00000000
     atom   13 type  2   force =     0.00000000    0.00000000    0.00000000
     atom   14 type  2   force =     0.00000000    0.00000000    0.00000000
     atom   15 type  2   force =     0.00000000    0.00000000    0.00000000
     atom   16 type  2   force =     0.00000000    0.00000000    0.00000000
     atom   17 type  3   force =     0.00000000    0.00000000    0.00000000
     atom   18 type  3   force =     0.00000000    0.00000000    0.00000000
     atom   19 type  1   force =     0.00000000    0.00000000    0.00000000
     atom   20 type  1   force =     0.00000000    0.00000000    0.00000000
     atom   21 type  3   force =     0.00000000    0.00000000    0.00000000
     atom   22 type  3   force =     0.00000000    0.00000000    0.00000000
     The SCF correction term to forces
     atom    1 type  1   force =     0.00000005   -0.00000000    0.00000002
     atom    2 type  2   force =     0.00000011   -0.00000000   -0.00000014
     atom    3 type  2   force =     0.00000010   -0.00000000    0.00000009
     atom    4 type  2   force =    -0.00000006    0.00000000   -0.00000010
     atom    5 type  2   force =    -0.00000012    0.00000000    0.00000016
     atom    6 type  3   force =     0.00000027   -0.00000000    0.00000030
     atom    7 type  3   force =     0.00000003    0.00000000   -0.00000012
     atom    8 type  1   force =     0.00000021    0.00000000    0.00000001
     atom    9 type  1   force =    -0.00000012   -0.00000000    0.00000000
     atom   10 type  3   force =     0.00000007    0.00000000    0.00000013
     atom   11 type  3   force =    -0.00000027    0.00000000   -0.00000032
     atom   12 type  1   force =    -0.00000008    0.00000000   -0.00000002
     atom   13 type  2   force =     0.00000001   -0.00000000   -0.00000016
     atom   14 type  2   force =     0.00000002   -0.00000000    0.00000011
     atom   15 type  2   force =    -0.00000004    0.00000000   -0.00000010
     atom   16 type  2   force =    -0.00000002    0.00000000    0.00000015
     atom   17 type  3   force =     0.00000003   -0.00000000    0.00000039
     atom   18 type  3   force =    -0.00000014   -0.00000000   -0.00000026
     atom   19 type  1   force =     0.00000011    0.00000000    0.00000007
     atom   20 type  1   force =    -0.00000014   -0.00000000   -0.00000008
     atom   21 type  3   force =     0.00000010   -0.00000000    0.00000026
     atom   22 type  3   force =    -0.00000008    0.00000000   -0.00000037

     Total force =     0.004962     Total SCF correction =     0.000001


     Computing stress (Cartesian axis) and pressure

          total   stress  (Ry/bohr**3)                   (kbar)     P=   14.93
   0.00019935   0.00000000  -0.00007775         29.32      0.00    -11.44
   0.00000000   0.00011470   0.00000000          0.00     16.87      0.00
  -0.00007775   0.00000000  -0.00000952        -11.44      0.00     -1.40

     kinetic stress (kbar)   1523.94     -0.00    -22.59
                               -0.00   1542.42      0.00
                              -22.59      0.00   1512.37

     local   stress (kbar)    -64.72      0.00   -100.70
                                0.00    494.79      0.00
                             -100.70      0.00     93.62

     nonloc. stress (kbar)   1181.58      0.00     -5.67
                                0.00   1166.72     -0.00
                               -5.67     -0.00   1154.28

     hartree stress (kbar)    190.20     -0.00     25.43
                               -0.00     31.54     -0.00
                               25.43     -0.00    149.57

     exc-cor stress (kbar)   1520.65      0.00     -0.08
                                0.00   1519.70     -0.00
                               -0.08     -0.00   1519.56

     corecor stress (kbar)  -2291.47     -0.00      1.14
                               -0.00  -2289.44      0.00
                                1.14      0.00  -2287.37

     ewald   stress (kbar)  -2030.85     -0.00     91.04
                               -0.00  -2448.85     -0.00
                               91.04     -0.00  -2143.43

     hubbard stress (kbar)      0.00      0.00      0.00
                                0.00      0.00      0.00
                                0.00      0.00      0.00

     london  stress (kbar)      0.00      0.00      0.00
                                0.00      0.00      0.00
                                0.00      0.00      0.00

     DFT-D3  stress (kbar)      0.00      0.00      0.00
                                0.00      0.00      0.00
                                0.00      0.00      0.00

     XDM     stress (kbar)      0.00      0.00      0.00
                                0.00      0.00      0.00
                                0.00      0.00      0.00

     dft-nl  stress (kbar)      0.00      0.00      0.00
                                0.00      0.00      0.00
                                0.00      0.00      0.00

     TS-vdW  stress (kbar)      0.00      0.00      0.00
                                0.00      0.00      0.00
                                0.00      0.00      0.00



     Writing output data file aiida.save/
 
     init_run     :     23.42s CPU     23.82s WALL (       1 calls)
     electrons    :    780.39s CPU    792.19s WALL (       1 calls)
     forces       :      9.52s CPU      9.64s WALL (       1 calls)
     stress       :     68.88s CPU     70.20s WALL (       1 calls)

     Called by init_run:
     wfcinit      :     20.92s CPU     21.25s WALL (       1 calls)
     wfcinit:atom :      0.16s CPU      0.18s WALL (     196 calls)
     wfcinit:wfcr :     19.44s CPU     19.71s WALL (     196 calls)
     potinit      :      0.85s CPU      0.86s WALL (       1 calls)
     hinit0       :      1.46s CPU      1.48s WALL (       1 calls)

     Called by electrons:
     c_bands      :    698.83s CPU    707.86s WALL (      17 calls)
     sum_band     :     76.54s CPU     78.37s WALL (      17 calls)
     v_of_rho     :      1.18s CPU      1.28s WALL (      17 calls)
     v_h          :      0.08s CPU      0.09s WALL (      17 calls)
     v_xc         :      1.21s CPU      1.31s WALL (      19 calls)
     newd         :      1.28s CPU      2.01s WALL (      17 calls)
     PAW_pot      :      2.11s CPU      2.18s WALL (      17 calls)
     mix_rho      :      0.48s CPU      0.52s WALL (      17 calls)

     Called by c_bands:
     init_us_2    :     24.40s CPU     24.74s WALL (    7252 calls)
     cegterg      :    548.14s CPU    554.77s WALL (    3332 calls)

     Called by sum_band:
     sum_band:bec :      0.52s CPU      0.52s WALL (    3332 calls)
     addusdens    :      1.28s CPU      2.11s WALL (      17 calls)

     Called by *egterg:
     h_psi        :    376.01s CPU    381.44s WALL (   15676 calls)
     s_psi        :     55.91s CPU     56.01s WALL (   15676 calls)
     g_psi        :      2.53s CPU      2.56s WALL (   12148 calls)
     cdiaghg      :     63.54s CPU     64.45s WALL (   15284 calls)
     cegterg:over :     26.21s CPU     26.34s WALL (   12148 calls)
     cegterg:upda :     22.55s CPU     22.78s WALL (   12148 calls)
     cegterg:last :      9.08s CPU      9.15s WALL (    3774 calls)
     cdiaghg:chol :      4.37s CPU      4.40s WALL (   15284 calls)
     cdiaghg:inve :      0.85s CPU      0.86s WALL (   15284 calls)
     cdiaghg:para :      8.39s CPU      8.46s WALL (   30568 calls)

     Called by h_psi:
     h_psi:pot    :    374.05s CPU    379.46s WALL (   15676 calls)
     h_psi:calbec :     54.73s CPU     55.38s WALL (   15676 calls)
     vloc_psi     :    262.26s CPU    266.94s WALL (   15676 calls)
     add_vuspsi   :     56.90s CPU     57.03s WALL (   15676 calls)

     General routines
     calbec       :    111.79s CPU    113.88s WALL (   19988 calls)
     fft          :      0.94s CPU      0.99s WALL (     246 calls)
     ffts         :      0.18s CPU      0.19s WALL (     269 calls)
     fftw         :    277.11s CPU    281.98s WALL (  927186 calls)
     interpolate  :      0.10s CPU      0.10s WALL (      17 calls)
 
     Parallel routines
     fft_scatt_xy :     35.04s CPU     35.68s WALL (  927701 calls)
     fft_scatt_yz :    104.70s CPU    106.68s WALL (  927701 calls)

     PAW routines
     PAW_pot      :      2.11s CPU      2.18s WALL (      17 calls)
 
     PWSCF        :  15m 6.02s CPU  15m37.20s WALL

 
   This run was terminated on:  14:27:43  22Feb2020            

=------------------------------------------------------------------------------=
   JOB DONE.
=------------------------------------------------------------------------------=
