begin
comment 22 atoms, species Al6Mg8Si8
lattice     26.6683778107     0.0000000000    -7.2731813837
lattice      0.0000000000     7.6666707325     0.0000000000
lattice      0.0000000000     0.0000000000    12.7886940821
atom      0.0376047004     0.0000000000     8.7141844362   Al  0.0 0.0   -3.99999970e-08  4.99999962e-09 -2.08499984e-06
atom      1.9573876803     3.8333408947    -0.1625759225   Mg  0.0 0.0   -3.44014974e-04  4.99999962e-09 -1.24199991e-05
atom      4.0968419286     3.8333408947     6.5136294603   Mg  0.0 0.0   -7.31679945e-04  1.49999989e-08 -3.34449975e-04
atom      9.3126890610     0.0000000000     7.2783422169   Mg  0.0 0.0    7.30269945e-04 -1.49999989e-08  3.33744975e-04
atom     11.4520520894     0.0000000000     1.1660193719   Mg  0.0 0.0    3.45604974e-04 -0.00000000e+00  1.21449991e-05
atom      1.5562828544     0.0000000000     3.9916902965   Si  0.0 0.0   -3.27569975e-04  0.00000000e+00 -2.65049980e-04
atom      4.8864742952     0.0000000000    10.1570588781   Si  0.0 0.0    5.81999956e-05 -9.49999929e-08  3.31299975e-04
atom      5.8769672874     0.0000000000     2.2081898026   Al  0.0 0.0   -2.86264978e-04 -2.99999977e-08 -6.32969952e-04
atom      7.5323978479     3.8333408947    -1.2050421267   Al  0.0 0.0    2.86054979e-04  2.99999977e-08  6.32969952e-04
atom      8.5228714904     3.8333408947     3.6346695461   Si  0.0 0.0   -5.81199956e-05  6.99999947e-08 -3.31374975e-04
atom     11.8531707365     3.8333408947    -2.9883408312   Si  0.0 0.0    3.27354975e-04  9.99999925e-09  2.65134980e-04
atom     13.3717576707     3.8333408947     5.0778646397   Al  0.0 0.0   -2.79999979e-07 -4.99999962e-09  2.24999983e-06
atom     15.2916125208     0.0000000000    -3.7982212447   Mg  0.0 0.0   -3.45014974e-04  4.99999962e-09 -2.12699984e-05
atom     17.4313431930     0.0000000000     2.8768977923   Mg  0.0 0.0   -7.34204945e-04  1.49999989e-08 -3.28224975e-04
atom     22.6465877213     3.8333408947     3.6418068099   Mg  0.0 0.0    7.32579945e-04 -9.99999925e-09  3.28044975e-04
atom     24.7861801816     3.8333408947    -2.4715664458   Mg  0.0 0.0    3.46849974e-04 -4.99999962e-09  2.11399984e-05
atom     14.8904413532     3.8333408947     0.3553400935   Si  0.0 0.0   -3.21509976e-04 -4.49999966e-08 -2.62724980e-04
atom     18.2203231993     3.8333408947     6.5207418459   Si  0.0 0.0    6.52349951e-05 -4.49999966e-08  3.24954976e-04
atom     19.2113165186     3.8333408947    -1.4281438151   Al  0.0 0.0   -2.90959978e-04 -2.99999977e-08 -6.38049952e-04
atom     20.8664043136     0.0000000000    -4.8419728198   Al  0.0 0.0    2.91064978e-04  2.49999981e-08  6.38474952e-04
atom     21.8573865759     0.0000000000    -0.0022804968   Si  0.0 0.0   -6.50399951e-05  7.49999944e-08 -3.24594976e-04
atom     25.1873900485     0.0000000000    -6.6251968899   Si  0.0 0.0    3.21474976e-04  2.99999977e-08  2.63054980e-04
energy -2.986770726395926e+02
charge 0.0000
end
