begin
comment uuid: 5759f25d-3ce4-4a1f-8762-12d3399401f3
lattice     15.3332370000     0.0000000000     0.0000000000
lattice      0.0000000000    15.3332370000     0.0000000000
lattice      0.0000000000     0.0000000000    15.3332370000
atom     15.2968200000    15.2968200000    15.2968200000   Al  0.0 0.0    5.84023500e-03  1.05767000e-02 -2.09105500e-03
atom      4.0364650000     4.1613210000    14.5924760000   Al  0.0 0.0    3.54651700e-02  2.05520950e-02 -6.64674550e-02
atom      4.2036990000    14.5038100000     4.1945100000   Al  0.0 0.0    1.59568550e-02 -2.23313450e-02  4.76015500e-03
atom     14.2143040000     4.4041410000     3.9441300000   Al  0.0 0.0    7.70032000e-03 -6.64658000e-03  1.66941500e-02
atom      7.9514160000     0.1486560000    15.1461020000   Al  0.0 0.0   -1.37796250e-02  5.81493000e-03  1.36092500e-02
atom     11.5740910000     3.7680450000     0.0660650000   Al  0.0 0.0   -3.71620000e-04  4.01468000e-03 -1.72350450e-02
atom     11.4414680000    15.2632110000     3.8247500000   Al  0.0 0.0   -1.09305000e-03  3.85687000e-03  4.00798500e-03
atom      7.7601650000     3.8966290000     3.6104110000   Al  0.0 0.0    4.35767000e-03 -2.48849000e-03  7.23659500e-03
atom      0.3750170000     7.6995730000     0.0076830000   Al  0.0 0.0   -1.25286800e-02  3.25799500e-03  1.08914000e-03
atom      3.7728620000    11.5105660000     0.0262550000   Al  0.0 0.0    1.02755600e-02 -1.75150000e-03 -3.57873000e-03
atom      4.0875570000     7.4686190000     4.2047290000   Al  0.0 0.0   -9.72685000e-04  1.39574700e-02 -1.46462350e-02
atom      0.0174890000    11.9292350000     3.6689510000   Al  0.0 0.0   -8.39015000e-03 -2.09061350e-02  8.57614000e-03
atom      8.4544550000     7.9641510000    15.3065220000   Al  0.0 0.0   -3.46717250e-02 -2.05434700e-02 -9.89422000e-03
atom     11.5707640000    11.5223950000    15.2738050000   Al  0.0 0.0    2.24137050e-02  7.96781000e-03  8.79555000e-03
atom     11.3446480000     8.0590100000     3.8663220000   Al  0.0 0.0    1.92820150e-02  4.04435000e-03  5.69146500e-03
atom      7.8902140000    11.3574450000     3.8183030000   Al  0.0 0.0   -1.00576900e-02  8.73206000e-03  1.48122000e-03
atom      0.0489270000     0.1480640000     7.6059280000   Al  0.0 0.0   -2.54833500e-03 -1.68132000e-03 -2.42830000e-03
atom      3.8510470000     3.8481100000     7.7389310000   Al  0.0 0.0    1.15900600e-02 -4.85177000e-03  3.71368500e-03
atom      3.9661430000     0.1309540000    11.5199970000   Al  0.0 0.0    1.85057000e-03 -9.00032500e-03 -3.14765000e-03
atom      0.0818240000     3.7932630000    11.2920040000   Al  0.0 0.0   -2.55560500e-03  1.94086500e-03  1.00650950e-02
atom      7.7451630000    15.2866830000     7.7400750000   Al  0.0 0.0   -4.78610000e-04  3.82183000e-03  1.67652000e-03
atom     11.5105440000     3.8964410000     8.0240510000   Al  0.0 0.0    1.94813000e-02 -1.02829000e-02 -2.90898600e-02
atom     11.6020020000    15.2044360000    11.6490850000   Al  0.0 0.0    8.26232500e-03  1.74241500e-02 -7.37516500e-03
atom      8.3711250000     3.9959930000    11.2473910000   Al  0.0 0.0   -3.98106100e-02 -3.02197000e-03  2.79518750e-02
atom      0.5462050000     7.8369150000     7.9232310000   Al  0.0 0.0   -4.03526600e-02 -1.49678500e-02 -1.58767750e-02
atom      3.6198490000    11.2520070000     7.6575760000   Al  0.0 0.0    2.35337300e-02  2.03306200e-02  7.70671000e-03
atom      3.8294680000     7.9107080000    11.3520430000   Al  0.0 0.0    2.31171550e-02  1.11050000e-03  1.54316450e-02
atom     15.2908690000    11.7846400000    11.3871020000   Al  0.0 0.0    7.67897500e-03 -6.75913000e-03  5.55379000e-03
atom      8.1627830000     7.6569350000     7.6422000000   Al  0.0 0.0   -2.11654700e-02  5.58643000e-03  5.23850500e-03
atom     11.4321940000    11.6965060000     7.8929660000   Al  0.0 0.0    7.35784500e-03 -4.29169000e-03 -8.76170500e-03
atom     11.7665740000     7.7127990000    11.3738590000   Al  0.0 0.0    1.04058800e-02  8.55768000e-03  7.62450000e-03
atom      8.0344920000    11.8483250000    11.9339160000   Al  0.0 0.0   -2.47914250e-02 -1.90526700e-02 -2.24020450e-02
atom      2.9008000000     2.9224550000     2.9023490000   Si  0.0 0.0   -2.10014300e-02  7.03010500e-03  4.60902650e-02
energy -6.375510821800002e+02
charge 0.0000
end
begin
comment uuid: 777caa97-d80e-4c01-951d-ff41f460eec9
lattice     10.0976490000     0.0000000000     0.0000000000
lattice      0.0000000000    10.0976490000     0.0000000000
lattice      0.0000000000     0.0000000000    10.0976490000
atom      0.0000000000     0.0000000000     0.0000000000   Al  0.0 0.0    1.66356500e-03 -5.90166000e-03  7.78971000e-03
atom      0.4187970000     5.2396420000     4.9247190000   Al  0.0 0.0   -5.67032500e-03  6.25410000e-04 -4.03854000e-03
atom      5.2752520000    10.0617050000     5.0844250000   Al  0.0 0.0   -2.11708500e-03  5.18250000e-04 -1.42341500e-03
atom      4.9649950000     5.1842860000     9.9517830000   Al  0.0 0.0    1.09335550e-02  6.86905000e-04  2.79392350e-02
atom      0.1861360000     0.1270110000     5.1349450000   Mg  0.0 0.0    2.37954500e-03  7.58649500e-03 -4.27788000e-03
atom      0.1532380000     5.0191390000     9.9873430000   Mg  0.0 0.0   -1.89487150e-02 -1.55110000e-03 -2.23671000e-03
atom      5.1080780000     0.0850710000     0.0344220000   Mg  0.0 0.0   -4.52500500e-03  5.93824500e-03  1.23188500e-03
atom      5.2951010000     5.0815730000     5.2930820000   Mg  0.0 0.0    1.62844650e-02 -7.90254500e-03 -2.49842850e-02
energy -1.460618407800001e+02
charge 0.0000
end
begin
comment uuid: 536e6687-bcea-4d34-a8d3-d4314f633057
lattice     28.6643510000     0.0000000000    -9.2642380000
lattice      0.0000000000     8.2099130000     0.0000000000
lattice      0.3236080000     0.0000000000    13.1904800000
atom      0.0000000000     0.0000000000     0.0000000000   Al  0.0 0.0   -1.00000000e-08 -5.00000000e-09 -0.00000000e+00
atom     22.5568040000     0.0000000000    -2.2216790000   Al  0.0 0.0    2.41955000e-04 -1.00000000e-08  2.11915500e-03
atom      8.2246290000     4.1049560000     2.4104410000   Al  0.0 0.0    2.41955000e-04  1.00000000e-08  2.11912000e-03
atom      6.4311540000     0.0000000000     6.1479210000   Al  0.0 0.0   -2.41970000e-04 -1.00000000e-08 -2.11916000e-03
atom     20.7633300000     4.1049560000     1.5158020000   Al  0.0 0.0   -2.41990000e-04  1.00000000e-08 -2.11915500e-03
atom     14.3321750000     4.1049560000    -4.6321190000   Al  0.0 0.0   -1.00000000e-08  5.00000000e-09  0.00000000e+00
atom     24.3454910000     4.1049560000    -6.6911580000   Mg  0.0 0.0    2.77900000e-05  1.00000000e-08  8.57190000e-04
atom      2.1684930000     4.1049560000     3.8942100000   Mg  0.0 0.0   -1.12474000e-03  1.00000000e-08 -3.91090000e-04
atom     12.4872900000     0.0000000000     4.6641520000   Mg  0.0 0.0    1.12473500e-03 -1.00000000e-08  3.91090000e-04
atom     16.5006680000     0.0000000000    -0.7379090000   Mg  0.0 0.0   -1.12473000e-03 -1.00000000e-08 -3.91095000e-04
atom     26.8194650000     4.1049560000     0.0320320000   Mg  0.0 0.0    1.12475000e-03  1.00000000e-08  3.91095000e-04
atom     10.0133160000     0.0000000000    -2.0590390000   Mg  0.0 0.0    2.77850000e-05 -1.00000000e-08  8.57190000e-04
atom      4.6424670000     4.1049560000    10.6174000000   Mg  0.0 0.0   -2.77950000e-05  1.00000000e-08 -8.57170000e-04
atom     18.9746420000     0.0000000000     5.9852810000   Mg  0.0 0.0   -2.77900000e-05 -1.00000000e-08 -8.57175000e-04
atom     23.6737460000     0.0000000000     2.7603330000   Si  0.0 0.0   -4.23533500e-03 -1.00000000e-08 -4.68751000e-03
atom     19.6463850000     4.1049560000    -3.4662090000   Si  0.0 0.0    4.23541000e-03  1.00000000e-08  4.68749000e-03
atom     27.1245930000     0.0000000000    -4.3039350000   Si  0.0 0.0    2.53201000e-03 -1.00000000e-08  2.96587500e-03
atom      5.3142100000     0.0000000000     1.1659100000   Si  0.0 0.0    4.23541000e-03 -1.00000000e-08  4.68748500e-03
atom     16.1955410000     4.1049560000     3.5980580000   Si  0.0 0.0   -2.53202500e-03  1.00000000e-08 -2.96585500e-03
atom     12.7924180000     4.1049560000     0.3281840000   Si  0.0 0.0    2.53197000e-03  1.00000000e-08  2.96587500e-03
atom      9.3415700000     4.1049560000     7.3924520000   Si  0.0 0.0   -4.23532000e-03  1.00000000e-08 -4.68749000e-03
atom      1.8633660000     0.0000000000     8.2301770000   Si  0.0 0.0   -2.53206500e-03 -1.00000000e-08 -2.96586000e-03
energy -2.986140398950001e+02
charge 0.0000
end
begin
comment uuid: 5759f25d-3ce4-4a1f-8762-12d3399401f3
lattice     15.3332370000     0.0000000000     0.0000000000
lattice      0.0000000000    15.3332370000     0.0000000000
lattice      0.0000000000     0.0000000000    15.3332370000
atom     15.2968200000    15.2968200000    15.2968200000   Al  0.0 0.0    5.84023500e-03  1.05767000e-02 -2.09105500e-03
atom      4.0364650000     4.1613210000    14.5924760000   Al  0.0 0.0    3.54651700e-02  2.05520950e-02 -6.64674550e-02
atom      4.2036990000    14.5038100000     4.1945100000   Al  0.0 0.0    1.59568550e-02 -2.23313450e-02  4.76015500e-03
atom     14.2143040000     4.4041410000     3.9441300000   Al  0.0 0.0    7.70032000e-03 -6.64658000e-03  1.66941500e-02
atom      7.9514160000     0.1486560000    15.1461020000   Al  0.0 0.0   -1.37796250e-02  5.81493000e-03  1.36092500e-02
atom     11.5740910000     3.7680450000     0.0660650000   Al  0.0 0.0   -3.71620000e-04  4.01468000e-03 -1.72350450e-02
atom     11.4414680000    15.2632110000     3.8247500000   Al  0.0 0.0   -1.09305000e-03  3.85687000e-03  4.00798500e-03
atom      7.7601650000     3.8966290000     3.6104110000   Al  0.0 0.0    4.35767000e-03 -2.48849000e-03  7.23659500e-03
atom      0.3750170000     7.6995730000     0.0076830000   Al  0.0 0.0   -1.25286800e-02  3.25799500e-03  1.08914000e-03
atom      3.7728620000    11.5105660000     0.0262550000   Al  0.0 0.0    1.02755600e-02 -1.75150000e-03 -3.57873000e-03
atom      4.0875570000     7.4686190000     4.2047290000   Al  0.0 0.0   -9.72685000e-04  1.39574700e-02 -1.46462350e-02
atom      0.0174890000    11.9292350000     3.6689510000   Al  0.0 0.0   -8.39015000e-03 -2.09061350e-02  8.57614000e-03
atom      8.4544550000     7.9641510000    15.3065220000   Al  0.0 0.0   -3.46717250e-02 -2.05434700e-02 -9.89422000e-03
atom     11.5707640000    11.5223950000    15.2738050000   Al  0.0 0.0    2.24137050e-02  7.96781000e-03  8.79555000e-03
atom     11.3446480000     8.0590100000     3.8663220000   Al  0.0 0.0    1.92820150e-02  4.04435000e-03  5.69146500e-03
atom      7.8902140000    11.3574450000     3.8183030000   Al  0.0 0.0   -1.00576900e-02  8.73206000e-03  1.48122000e-03
atom      0.0489270000     0.1480640000     7.6059280000   Al  0.0 0.0   -2.54833500e-03 -1.68132000e-03 -2.42830000e-03
atom      3.8510470000     3.8481100000     7.7389310000   Al  0.0 0.0    1.15900600e-02 -4.85177000e-03  3.71368500e-03
atom      3.9661430000     0.1309540000    11.5199970000   Al  0.0 0.0    1.85057000e-03 -9.00032500e-03 -3.14765000e-03
atom      0.0818240000     3.7932630000    11.2920040000   Al  0.0 0.0   -2.55560500e-03  1.94086500e-03  1.00650950e-02
atom      7.7451630000    15.2866830000     7.7400750000   Al  0.0 0.0   -4.78610000e-04  3.82183000e-03  1.67652000e-03
atom     11.5105440000     3.8964410000     8.0240510000   Al  0.0 0.0    1.94813000e-02 -1.02829000e-02 -2.90898600e-02
atom     11.6020020000    15.2044360000    11.6490850000   Al  0.0 0.0    8.26232500e-03  1.74241500e-02 -7.37516500e-03
atom      8.3711250000     3.9959930000    11.2473910000   Al  0.0 0.0   -3.98106100e-02 -3.02197000e-03  2.79518750e-02
atom      0.5462050000     7.8369150000     7.9232310000   Al  0.0 0.0   -4.03526600e-02 -1.49678500e-02 -1.58767750e-02
atom      3.6198490000    11.2520070000     7.6575760000   Al  0.0 0.0    2.35337300e-02  2.03306200e-02  7.70671000e-03
atom      3.8294680000     7.9107080000    11.3520430000   Al  0.0 0.0    2.31171550e-02  1.11050000e-03  1.54316450e-02
atom     15.2908690000    11.7846400000    11.3871020000   Al  0.0 0.0    7.67897500e-03 -6.75913000e-03  5.55379000e-03
atom      8.1627830000     7.6569350000     7.6422000000   Al  0.0 0.0   -2.11654700e-02  5.58643000e-03  5.23850500e-03
atom     11.4321940000    11.6965060000     7.8929660000   Al  0.0 0.0    7.35784500e-03 -4.29169000e-03 -8.76170500e-03
atom     11.7665740000     7.7127990000    11.3738590000   Al  0.0 0.0    1.04058800e-02  8.55768000e-03  7.62450000e-03
atom      8.0344920000    11.8483250000    11.9339160000   Al  0.0 0.0   -2.47914250e-02 -1.90526700e-02 -2.24020450e-02
atom      2.9008000000     2.9224550000     2.9023490000   Si  0.0 0.0   -2.10014300e-02  7.03010500e-03  4.60902650e-02
energy -6.375510821800002e+02
charge 0.0000
end
begin
comment uuid: 777caa97-d80e-4c01-951d-ff41f460eec9
lattice     10.0976490000     0.0000000000     0.0000000000
lattice      0.0000000000    10.0976490000     0.0000000000
lattice      0.0000000000     0.0000000000    10.0976490000
atom      0.0000000000     0.0000000000     0.0000000000   Al  0.0 0.0    1.66356500e-03 -5.90166000e-03  7.78971000e-03
atom      0.4187970000     5.2396420000     4.9247190000   Al  0.0 0.0   -5.67032500e-03  6.25410000e-04 -4.03854000e-03
atom      5.2752520000    10.0617050000     5.0844250000   Al  0.0 0.0   -2.11708500e-03  5.18250000e-04 -1.42341500e-03
atom      4.9649950000     5.1842860000     9.9517830000   Al  0.0 0.0    1.09335550e-02  6.86905000e-04  2.79392350e-02
atom      0.1861360000     0.1270110000     5.1349450000   Mg  0.0 0.0    2.37954500e-03  7.58649500e-03 -4.27788000e-03
atom      0.1532380000     5.0191390000     9.9873430000   Mg  0.0 0.0   -1.89487150e-02 -1.55110000e-03 -2.23671000e-03
atom      5.1080780000     0.0850710000     0.0344220000   Mg  0.0 0.0   -4.52500500e-03  5.93824500e-03  1.23188500e-03
atom      5.2951010000     5.0815730000     5.2930820000   Mg  0.0 0.0    1.62844650e-02 -7.90254500e-03 -2.49842850e-02
energy -1.460618407800001e+02
charge 0.0000
end
begin
comment uuid: 536e6687-bcea-4d34-a8d3-d4314f633057
lattice     28.6643510000     0.0000000000    -9.2642380000
lattice      0.0000000000     8.2099130000     0.0000000000
lattice      0.3236080000     0.0000000000    13.1904800000
atom      0.0000000000     0.0000000000     0.0000000000   Al  0.0 0.0   -1.00000000e-08 -5.00000000e-09 -0.00000000e+00
atom     22.5568040000     0.0000000000    -2.2216790000   Al  0.0 0.0    2.41955000e-04 -1.00000000e-08  2.11915500e-03
atom      8.2246290000     4.1049560000     2.4104410000   Al  0.0 0.0    2.41955000e-04  1.00000000e-08  2.11912000e-03
atom      6.4311540000     0.0000000000     6.1479210000   Al  0.0 0.0   -2.41970000e-04 -1.00000000e-08 -2.11916000e-03
atom     20.7633300000     4.1049560000     1.5158020000   Al  0.0 0.0   -2.41990000e-04  1.00000000e-08 -2.11915500e-03
atom     14.3321750000     4.1049560000    -4.6321190000   Al  0.0 0.0   -1.00000000e-08  5.00000000e-09  0.00000000e+00
atom     24.3454910000     4.1049560000    -6.6911580000   Mg  0.0 0.0    2.77900000e-05  1.00000000e-08  8.57190000e-04
atom      2.1684930000     4.1049560000     3.8942100000   Mg  0.0 0.0   -1.12474000e-03  1.00000000e-08 -3.91090000e-04
atom     12.4872900000     0.0000000000     4.6641520000   Mg  0.0 0.0    1.12473500e-03 -1.00000000e-08  3.91090000e-04
atom     16.5006680000     0.0000000000    -0.7379090000   Mg  0.0 0.0   -1.12473000e-03 -1.00000000e-08 -3.91095000e-04
atom     26.8194650000     4.1049560000     0.0320320000   Mg  0.0 0.0    1.12475000e-03  1.00000000e-08  3.91095000e-04
atom     10.0133160000     0.0000000000    -2.0590390000   Mg  0.0 0.0    2.77850000e-05 -1.00000000e-08  8.57190000e-04
atom      4.6424670000     4.1049560000    10.6174000000   Mg  0.0 0.0   -2.77950000e-05  1.00000000e-08 -8.57170000e-04
atom     18.9746420000     0.0000000000     5.9852810000   Mg  0.0 0.0   -2.77900000e-05 -1.00000000e-08 -8.57175000e-04
atom     23.6737460000     0.0000000000     2.7603330000   Si  0.0 0.0   -4.23533500e-03 -1.00000000e-08 -4.68751000e-03
atom     19.6463850000     4.1049560000    -3.4662090000   Si  0.0 0.0    4.23541000e-03  1.00000000e-08  4.68749000e-03
atom     27.1245930000     0.0000000000    -4.3039350000   Si  0.0 0.0    2.53201000e-03 -1.00000000e-08  2.96587500e-03
atom      5.3142100000     0.0000000000     1.1659100000   Si  0.0 0.0    4.23541000e-03 -1.00000000e-08  4.68748500e-03
atom     16.1955410000     4.1049560000     3.5980580000   Si  0.0 0.0   -2.53202500e-03  1.00000000e-08 -2.96585500e-03
atom     12.7924180000     4.1049560000     0.3281840000   Si  0.0 0.0    2.53197000e-03  1.00000000e-08  2.96587500e-03
atom      9.3415700000     4.1049560000     7.3924520000   Si  0.0 0.0   -4.23532000e-03  1.00000000e-08 -4.68749000e-03
atom      1.8633660000     0.0000000000     8.2301770000   Si  0.0 0.0   -2.53206500e-03 -1.00000000e-08 -2.96586000e-03
energy -2.986140398950001e+02
charge 0.0000
end
