begin
comment 4 atoms, species Al4
lattice      7.4016996834     0.0000000000    -0.0000000000
lattice      0.0000000000     7.4016996834    -0.0000000000
lattice     -0.0000000000    -0.0000000000     7.4016996834
atom      0.0000000000     0.0000000000     0.0000000000   Al  0.0 0.0    8.27282076e-14  8.29645961e-14  8.25409443e-14
atom      0.0000000000     3.7008498417     3.7008498417   Al  0.0 0.0    8.27211907e-14 -8.28582571e-14 -8.26461143e-14
atom      3.7008498417    -0.0000000000     3.7008498417   Al  0.0 0.0   -8.28056632e-14  8.27914354e-14 -8.24709289e-14
atom      3.7008498417     3.7008498417    -0.0000000000   Al  0.0 0.0   -8.27020292e-14 -8.28176907e-14  8.24544695e-14
energy -7.900013086813345e+01
charge 0.0000
end
begin
comment 4 atoms, species Al4
lattice      7.4589293201     0.0000000000    -0.0000000000
lattice      0.0000000000     7.4589293201    -0.0000000000
lattice     -0.0000000000    -0.0000000000     7.4589293201
atom      0.0000000000     0.0000000000     0.0000000000   Al  0.0 0.0   -2.43782610e-13 -2.43682308e-13 -2.43637034e-13
atom      0.0000000000     3.7294646601     3.7294646601   Al  0.0 0.0   -2.43849540e-13  2.43808050e-13  2.43668589e-13
atom      3.7294646601    -0.0000000000     3.7294646601   Al  0.0 0.0    2.43827950e-13 -2.43602431e-13  2.43672513e-13
atom      3.7294646601     3.7294646601    -0.0000000000   Al  0.0 0.0    2.43781530e-13  2.43655451e-13 -2.43714070e-13
energy -7.900257018047637e+01
charge 0.0000
end
begin
comment 4 atoms, species Al4
lattice      7.5161589569     0.0000000000    -0.0000000000
lattice      0.0000000000     7.5161589569    -0.0000000000
lattice     -0.0000000000    -0.0000000000     7.5161589569
atom      0.0000000000     0.0000000000     0.0000000000   Al  0.0 0.0    6.18629746e-14  6.18178952e-14  6.18439229e-14
atom      0.0000000000     3.7580794784     3.7580794784   Al  0.0 0.0    6.17641986e-14 -6.17812716e-14 -6.18161543e-14
atom      3.7580794784    -0.0000000000     3.7580794784   Al  0.0 0.0   -6.18942807e-14  6.17506002e-14 -6.17257305e-14
atom      3.7580794784     3.7580794784    -0.0000000000   Al  0.0 0.0   -6.17690564e-14 -6.18555371e-14  6.22274122e-14
energy -7.900424553174977e+01
charge 0.0000
end
begin
comment 4 atoms, species Al4
lattice      7.5733885936     0.0000000000    -0.0000000000
lattice      0.0000000000     7.5733885936    -0.0000000000
lattice     -0.0000000000    -0.0000000000     7.5733885936
atom      0.0000000000     0.0000000000     0.0000000000   Al  0.0 0.0   -2.11171390e-13 -2.11303531e-13 -2.11580785e-13
atom      0.0000000000     3.7866942968     3.7866942968   Al  0.0 0.0   -2.11273944e-13  2.11212600e-13  2.11616209e-13
atom      3.7866942968    -0.0000000000     3.7866942968   Al  0.0 0.0    2.11197298e-13 -2.11256298e-13  2.11679389e-13
atom      3.7866942968     3.7866942968    -0.0000000000   Al  0.0 0.0    2.11177867e-13  2.11221732e-13 -2.11481669e-13
energy -7.900521775786520e+01
charge 0.0000
end
begin
comment 4 atoms, species Al4
lattice      7.6306182303     0.0000000000    -0.0000000000
lattice      0.0000000000     7.6306182303    -0.0000000000
lattice     -0.0000000000    -0.0000000000     7.6306182303
atom      0.0000000000     0.0000000000     0.0000000000   Al  0.0 0.0    4.48540571e-14  4.50377950e-14  4.46731845e-14
atom      0.0000000000     3.8153091152     3.8153091152   Al  0.0 0.0    4.49112717e-14 -4.49518741e-14 -4.49232428e-14
atom      3.8153091152    -0.0000000000     3.8153091152   Al  0.0 0.0   -4.48367848e-14  4.49069720e-14 -4.47871857e-14
atom      3.8153091152     3.8153091152    -0.0000000000   Al  0.0 0.0   -4.47806497e-14 -4.50003487e-14  4.51213211e-14
energy -7.900553311519106e+01
charge 0.0000
end
begin
comment 4 atoms, species Al4
lattice      7.6878478670     0.0000000000    -0.0000000000
lattice      0.0000000000     7.6878478670    -0.0000000000
lattice     -0.0000000000    -0.0000000000     7.6878478670
atom      0.0000000000     0.0000000000     0.0000000000   Al  0.0 0.0   -1.80548105e-13 -1.80459857e-13 -1.80519238e-13
atom      0.0000000000     3.8439239335     3.8439239335   Al  0.0 0.0   -1.80578332e-13  1.80497669e-13  1.80687997e-13
atom      3.8439239335    -0.0000000000     3.8439239335   Al  0.0 0.0    1.80549185e-13 -1.80685194e-13  1.80724082e-13
atom      3.8439239335     3.8439239335    -0.0000000000   Al  0.0 0.0    1.80633927e-13  1.80435168e-13 -1.80375965e-13
energy -7.900523244410903e+01
charge 0.0000
end
begin
comment 4 atoms, species Al4
lattice      7.7450775038     0.0000000000    -0.0000000000
lattice      0.0000000000     7.7450775038    -0.0000000000
lattice     -0.0000000000    -0.0000000000     7.7450775038
atom      0.0000000000     0.0000000000     0.0000000000   Al  0.0 0.0    3.15511318e-14  3.15508086e-14  3.14907547e-14
atom      0.0000000000     3.8725387519     3.8725387519   Al  0.0 0.0    3.15727222e-14 -3.16013950e-14 -3.16355862e-14
atom      3.8725387519    -0.0000000000     3.8725387519   Al  0.0 0.0   -3.15916138e-14  3.16165756e-14 -3.15112258e-14
atom      3.8725387519     3.8725387519    -0.0000000000   Al  0.0 0.0   -3.15511318e-14 -3.16085461e-14  3.17532090e-14
energy -7.900436750572258e+01
charge 0.0000
end
begin
comment 4 atoms, species Al4
lattice      7.8023071405     0.0000000000    -0.0000000000
lattice      0.0000000000     7.8023071405    -0.0000000000
lattice     -0.0000000000    -0.0000000000     7.8023071405
atom      0.0000000000     0.0000000000     0.0000000000   Al  0.0 0.0   -1.51112293e-13 -1.51092441e-13 -1.51136156e-13
atom      0.0000000000     3.9011535702     3.9011535702   Al  0.0 0.0   -1.51075589e-13  1.51115655e-13  1.51155685e-13
atom      3.9011535702    -0.0000000000     3.9011535702   Al  0.0 0.0    1.51110134e-13 -1.51047696e-13  1.51119915e-13
atom      3.9011535702     3.9011535702    -0.0000000000   Al  0.0 0.0    1.51173825e-13  1.51046431e-13 -1.50941403e-13
energy -7.900299897494544e+01
charge 0.0000
end
begin
comment 4 atoms, species Al4
lattice      7.8595367772     0.0000000000    -0.0000000000
lattice      0.0000000000     7.8595367772    -0.0000000000
lattice     -0.0000000000    -0.0000000000     7.8595367772
atom      0.0000000000     0.0000000000     0.0000000000   Al  0.0 0.0    2.10743900e-14  2.10696080e-14  2.09350359e-14
atom      0.0000000000     3.9297683886     3.9297683886   Al  0.0 0.0    2.10614357e-14 -2.10782315e-14 -2.08617909e-14
atom      3.9297683886    -0.0000000000     3.9297683886   Al  0.0 0.0   -2.10420044e-14  2.11193418e-14 -2.10812614e-14
atom      3.9297683886     3.9297683886    -0.0000000000   Al  0.0 0.0   -2.10560381e-14 -2.11246298e-14  2.08316434e-14
energy -7.900119412095732e+01
charge 0.0000
end
