begin
comment 22 atoms, species Mg10Si12
lattice     26.8935816190     0.0000000000    -9.7346427643
lattice      0.0000000000     7.7189741189     0.0000000000
lattice      0.0000000000     0.0000000000    13.0913352590
atom      0.0380023970     7.7179759375    12.9277822319   Mg  0.0 0.0   -1.15499991e-06 -2.60649980e-05 -1.49999989e-08
atom      2.1354446958     3.8573476907     3.9618993293   Mg  0.0 0.0   -2.21944983e-04  1.40949989e-05  1.42649989e-05
atom      4.2465440614     3.8571961044    10.5322526432   Mg  0.0 0.0   -3.28694975e-04  1.55399988e-05 -6.18299954e-05
atom      9.2762172207     7.7174267947    -2.6354449246   Mg  0.0 0.0    3.28794975e-04 -1.53799988e-05  6.11699954e-05
atom     11.3872565238     7.7172752084     3.9351143178   Mg  0.0 0.0    2.21604983e-04 -1.39549990e-05 -1.56299988e-05
atom      1.5903689965     7.7171207620     8.0373968527   Si  0.0 0.0    3.72049972e-05 -1.40849989e-05  2.05219985e-04
atom      5.2166276775     7.7168318900     1.3388158376   Si  0.0 0.0   -4.26799968e-05  1.12649992e-05  5.20754961e-04
atom      5.6647968355     7.7170521191     6.0732732662   Si  0.0 0.0   -2.95829978e-04  6.25999953e-06 -2.98669978e-04
atom      7.8577928395     3.8575679198     1.8235716338   Si  0.0 0.0    2.96164978e-04 -6.46499951e-06  3.00344977e-04
atom      8.3059762981     3.8577852888     6.5580176220   Si  0.0 0.0    4.32749967e-05 -1.14449991e-05 -5.20634961e-04
atom     11.9321949374     3.8574964168    -0.1405376520   Si  0.0 0.0   -3.68399972e-05  1.40599989e-05 -2.04849985e-04
atom     13.4847960666     3.8566498217     8.0604665700   Mg  0.0 0.0   -1.18999991e-06  2.62599980e-05  2.99999977e-08
atom     15.5822383655     7.7172752084    -0.9054163326   Mg  0.0 0.0   -2.21989983e-04 -1.38199990e-05  1.41449989e-05
atom     17.6933348709     7.7174267947     5.6649369813   Mg  0.0 0.0   -3.28619975e-04 -1.52899989e-05 -6.17449954e-05
atom     22.7230080302     3.8571961044    -7.5027577264   Mg  0.0 0.0    3.28869975e-04  1.54749988e-05  6.12549954e-05
atom     24.8340473333     3.8573476907    -0.9322013441   Mg  0.0 0.0    2.21709983e-04  1.39449990e-05 -1.57649988e-05
atom     15.0371598060     3.8574964168     3.1700811908   Si  0.0 0.0    3.74299972e-05  1.38399990e-05  2.05089985e-04
atom     18.6634213471     3.8577852888    -3.5284998243   Si  0.0 0.0   -4.28749968e-05 -1.16649991e-05  5.21419961e-04
atom     19.1115876450     3.8575679198     1.2059576043   Si  0.0 0.0   -2.95694978e-04 -6.75999949e-06 -2.99369978e-04
atom     21.3045836490     7.7170521191    -3.0437411679   Si  0.0 0.0    2.96054978e-04  6.52999951e-06  2.99509977e-04
atom     21.7527671076     7.7168318900     1.6907048202   Si  0.0 0.0    4.30899968e-05  1.15499991e-05 -5.19844961e-04
atom     25.3789857469     7.7171236221    -5.0078533139   Si  0.0 0.0   -3.66899972e-05 -1.38949990e-05 -2.04839985e-04
energy -2.365795651510696e+02
charge 0.0000
end
