
     Program PWSCF v.6.3 starts on 22Feb2020 at 14:12:26 

     This program is part of the open-source Quantum ESPRESSO suite
     for quantum simulation of materials; please cite
         "P. Giannozzi et al., J. Phys.:Condens. Matter 21 395502 (2009);
         "P. Giannozzi et al., J. Phys.:Condens. Matter 29 465901 (2017);
          URL http://www.quantum-espresso.org", 
     in publications or presentations arising from this work. More details at
     http://www.quantum-espresso.org/quote

 *** WARNING: using old-style file format, will disappear from next version ***

     Parallel version (MPI & OpenMP), running on      36 processor cores
     Number of MPI processes:                36
     Threads/MPI process:                     1

     MPI processes distributed on     1 nodes
     K-points division:     npool     =       4
     R & G space division:  proc/nbgrp/npool/nimage =       9
     Reading input from aiida.in
Warning: card &IONS ignored
Warning: card   !PRESS_CONV_THR = 0.05                 ! JUST FOR VOLUME RELAXATIONS ignored
Warning: card / ignored

     Current dimensions of program PWSCF are:
     Max number of different atomic species (ntypx) = 10
     Max number of k-points (npk) =  40000
     Max angular momentum in pseudopotentials (lmaxx) =  3
               file Mg.pbe-n-kjpaw_psl.0.3.0.UPF: wavefunction(s)  3S renormalized
               file Al.pbe-n-kjpaw_psl.1.0.0.UPF: wavefunction(s)  3S 3P renormalized

     Subspace diagonalization in iterative solution of the eigenvalue problem:
     one sub-group per band group will be used
     scalapack distributed-memory algorithm (size of sub-group:  2*  2 procs)

 
     Parallelization info
     --------------------
     sticks:   dense  smooth     PW     G-vecs:    dense   smooth      PW
     Min        6208    2486    722               307891    77922   12142
     Max        6209    2487    723               307892    77923   12143
     Sum       55879   22375   6499              2771027   701299  109285
 


     bravais-lattice index     =            0
     lattice parameter (alat)  =     228.6993  a.u.
     unit-cell volume          =   20505.3512 (a.u.)^3
     number of atoms/cell      =          176
     number of atomic types    =            3
     number of electrons       =       536.00
     number of Kohn-Sham states=          322
     kinetic-energy cutoff     =      40.0000  Ry
     charge density cutoff     =     400.0000  Ry
     convergence threshold     =      1.0E-12
     mixing beta               =       0.4000
     number of iterations used =            8  local-TF  mixing
     Exchange-correlation      = SLA PW PBX PBC ( 1  4  3  4 0 0)

     celldm(1)= 228.699343  celldm(2)=   0.000000  celldm(3)=   0.000000
     celldm(4)=   0.000000  celldm(5)=   0.000000  celldm(6)=   0.000000

     crystal axes: (cart. coord. in units of alat)
               a(1) = (   1.000000   0.000000   0.000000 )  
               a(2) = (   0.000000   0.033523   0.000000 )  
               a(3) = (  -0.013946   0.000000   0.051136 )  

     reciprocal axes: (cart. coord. in units 2 pi/alat)
               b(1) = (  1.000000  0.000000  0.272727 )  
               b(2) = (  0.000000 29.830289  0.000000 )  
               b(3) = (  0.000000  0.000000 19.555552 )  


     PseudoPot. # 1 for Mg read from file:
     /users/aglensk/Dropbox/Albert/scripts/dotfiles/scripts/potentials/quantum_espresso/pseudo_SSSPefV1.1_alalloy/Mg.pbe-n-kjpaw_psl.0.3.0.UPF
     MD5 check sum: 24ecedc7f3e3cbe212e682f4413594e4
     Pseudo is Projector augmented-wave + core cor, Zval =  2.0
     Generated using "atomic" code by A. Dal Corso v.5.0.99 svn rev. 10869
     Shape of augmentation charge: PSQ
     Using radial grid of 1129 points,  4 beta functions with: 
                l(1) =   0
                l(2) =   0
                l(3) =   1
                l(4) =   1
     Q(r) pseudized with 0 coefficients 


     PseudoPot. # 2 for Si read from file:
     /users/aglensk/Dropbox/Albert/scripts/dotfiles/scripts/potentials/quantum_espresso/pseudo_SSSPefV1.1_alalloy/Si.pbe-n-rrkjus_psl.1.0.0.UPF
     MD5 check sum: 0b0bb1205258b0d07b9f9672cf965d36
     Pseudo is Ultrasoft + core correction, Zval =  4.0
     Generated using "atomic" code by A. Dal Corso v.5.1
     Using radial grid of 1141 points,  6 beta functions with: 
                l(1) =   0
                l(2) =   0
                l(3) =   1
                l(4) =   1
                l(5) =   2
                l(6) =   2
     Q(r) pseudized with 0 coefficients 


     PseudoPot. # 3 for Al read from file:
     /users/aglensk/Dropbox/Albert/scripts/dotfiles/scripts/potentials/quantum_espresso/pseudo_SSSPefV1.1_alalloy/Al.pbe-n-kjpaw_psl.1.0.0.UPF
     MD5 check sum: cfc449ca30b5f3223ec38ddd88ac046d
     Pseudo is Projector augmented-wave + core cor, Zval =  3.0
     Generated using "atomic" code by A. Dal Corso v.5.1
     Shape of augmentation charge: PSQ
     Using radial grid of 1135 points,  6 beta functions with: 
                l(1) =   0
                l(2) =   0
                l(3) =   1
                l(4) =   1
                l(5) =   2
                l(6) =   2
     Q(r) pseudized with 0 coefficients 


     atomic species   valence    mass     pseudopotential
        Mg             2.00    24.30500     Mg( 1.00)
        Si             4.00    28.08500     Si( 1.00)
        Al             3.00    26.98154     Al( 1.00)

     No symmetry found


                                    s                        frac. trans.

      isym =  1     identity                                     

 cryst.   s( 1) = (     1          0          0      )
                  (     0          1          0      )
                  (     0          0          1      )

 cart.    s( 1) = (  1.0000000  0.0000000  0.0000000 )
                  (  0.0000000  1.0000000  0.0000000 )
                  (  0.0000000  0.0000000  1.0000000 )


   Cartesian axes

     site n.     atom                  positions (alat units)
         1           Mg  tau(   1) = (   0.0308830   0.0000000   0.0006349  )
         2           Mg  tau(   2) = (   0.0355669   0.0167615   0.0192037  )
         3           Mg  tau(   3) = (   0.0374738   0.0167615   0.0474374  )
         4           Mg  tau(   4) = (   0.0743440   0.0000000   0.0035762  )
         5           Mg  tau(   5) = (   0.0761360   0.0000000   0.0319116  )
         6           Si  tau(   6) = (   0.0287371   0.0000000   0.0340421  )
         7           Si  tau(   7) = (   0.0521645   0.0000000   0.0128520  )
         8           Si  tau(   8) = (   0.0486321   0.0000000   0.0327509  )
         9           Si  tau(   9) = (   0.0631692   0.0167615   0.0183810  )
        10           Si  tau(  10) = (   0.0598605   0.0167615   0.0383245  )
        11           Si  tau(  11) = (   0.0830782   0.0167615   0.0169132  )
        12           Mg  tau(  12) = (   0.0812846   0.0167615   0.0507022  )
        13           Mg  tau(  13) = (   0.1004252   0.0000000   0.0183887  )
        14           Mg  tau(  14) = (   0.1022343   0.0000000   0.0467941  )
        15           Mg  tau(  15) = (   0.0090454   0.0167615   0.0044870  )
        16           Mg  tau(  16) = (   0.0113690   0.0167615   0.0324190  )
        17           Si  tau(  17) = (   0.0935875   0.0167615   0.0334492  )
        18           Si  tau(  18) = (   0.1166883   0.0167615   0.0121298  )
        19           Si  tau(  19) = (   0.9859467   0.0167615   0.0312827  )
        20           Si  tau(  20) = (   0.1277591   0.0000000   0.0178927  )
        21           Si  tau(  21) = (  -0.0030003   0.0000000   0.0396289  )
        22           Si  tau(  22) = (   0.0177522   0.0000000   0.0176270  )
        23           Mg  tau(  23) = (   0.1460173   0.0000000   0.0505336  )
        24           Mg  tau(  24) = (   0.1651325   0.0167615   0.0182669  )
        25           Mg  tau(  25) = (   0.1669372   0.0167615   0.0466805  )
        26           Mg  tau(  26) = (   0.2036947   0.0000000   0.0032585  )
        27           Mg  tau(  27) = (   0.2054812   0.0000000   0.0316927  )
        28           Si  tau(  28) = (   0.1582619   0.0000000   0.0332450  )
        29           Si  tau(  29) = (   0.1813796   0.0000000   0.0120635  )
        30           Si  tau(  30) = (   0.1782180   0.0000000   0.0320585  )
        31           Si  tau(  31) = (   0.1923934   0.0167615   0.0178948  )
        32           Si  tau(  32) = (   0.1892471   0.0167615   0.0378876  )
        33           Si  tau(  33) = (   0.2123287   0.0167615   0.0166926  )
        34           Mg  tau(  34) = (   0.2106204   0.0167615   0.0505498  )
        35           Mg  tau(  35) = (   0.2296934   0.0000000   0.0182668  )
        36           Mg  tau(  36) = (   0.2314808   0.0000000   0.0466847  )
        37           Mg  tau(  37) = (   0.1390428   0.0167615   0.0032479  )
        38           Mg  tau(  38) = (   0.1408423   0.0167615   0.0316629  )
        39           Si  tau(  39) = (   0.2228411   0.0167615   0.0332624  )
        40           Si  tau(  40) = (   0.2459038   0.0167615   0.0120583  )
        41           Si  tau(  41) = (   0.1135182   0.0167615   0.0321064  )
        42           Si  tau(  42) = (   0.2568840   0.0000000   0.0179048  )
        43           Si  tau(  43) = (   0.1245618   0.0000000   0.0378816  )
        44           Si  tau(  44) = (   0.1477123   0.0000000   0.0166840  )
        45           Mg  tau(  45) = (   0.2750718   0.0000000   0.0505473  )
        46           Mg  tau(  46) = (   0.2941310   0.0167615   0.0182635  )
        47           Mg  tau(  47) = (   0.2959068   0.0167615   0.0466912  )
        48           Mg  tau(  48) = (   0.3325886   0.0000000   0.0032876  )
        49           Mg  tau(  49) = (   0.3343679   0.0000000   0.0317126  )
        50           Si  tau(  50) = (   0.2872868   0.0000000   0.0332673  )
        51           Si  tau(  51) = (   0.3103264   0.0000000   0.0120599  )
        52           Si  tau(  52) = (   0.3072028   0.0000000   0.0320531  )
        53           Si  tau(  53) = (   0.3213017   0.0167615   0.0179179  )
        54           Si  tau(  54) = (   0.3181719   0.0167615   0.0379140  )
        55           Si  tau(  55) = (   0.3412222   0.0167615   0.0167148  )
        56           Mg  tau(  56) = (   0.3394845   0.0167615   0.0505682  )
        57           Mg  tau(  57) = (   0.3585616   0.0000000   0.0182907  )
        58           Mg  tau(  58) = (   0.3603294   0.0000000   0.0467235  )
        59           Mg  tau(  59) = (   0.2681788   0.0167615   0.0032668  )
        60           Mg  tau(  60) = (   0.2699556   0.0167615   0.0316962  )
        61           Si  tau(  61) = (   0.3517061   0.0167615   0.0332929  )
        62           Si  tau(  62) = (   0.3747882   0.0167615   0.0120889  )
        63           Si  tau(  63) = (   0.2427693   0.0167615   0.0320526  )
        64           Si  tau(  64) = (   0.3857583   0.0000000   0.0179393  )
        65           Si  tau(  65) = (   0.2537563   0.0000000   0.0378987  )
        66           Si  tau(  66) = (   0.2768017   0.0000000   0.0166904  )
        67           Mg  tau(  67) = (   0.4039721   0.0000000   0.0505290  )
        68           Mg  tau(  68) = (   0.4230404   0.0167615   0.0181961  )
        69           Mg  tau(  69) = (   0.4247668   0.0167615   0.0465891  )
        70           Mg  tau(  70) = (   0.4615910   0.0000000   0.0028982  )
        71           Mg  tau(  71) = (   0.4634483   0.0000000   0.0311711  )
        72           Si  tau(  72) = (   0.4161010   0.0000000   0.0332008  )
        73           Si  tau(  73) = (   0.4392870   0.0000000   0.0118608  )
        74           Si  tau(  74) = (   0.4359832   0.0000000   0.0318058  )
        75           Si  tau(  75) = (   0.4504166   0.0167615   0.0175714  )
        76           Si  tau(  76) = (   0.4468929   0.0167615   0.0374696  )
        77           Si  tau(  77) = (   0.4702890   0.0167615   0.0163448  )
        78           Mg  tau(  78) = (   0.4681032   0.0167615   0.0497417  )
        79           Mg  tau(  79) = (   0.4875682   0.0000000   0.0179779  )
        80           Mg  tau(  80) = (   0.4898959   0.0000000   0.0459630  )
        81           Mg  tau(  81) = (   0.3970497   0.0167615   0.0032625  )
        82           Mg  tau(  82) = (   0.3988250   0.0167615   0.0316973  )
        83           Si  tau(  83) = (   0.4812390   0.0167615   0.0327830  )
        84           Si  tau(  84) = (   0.5019083   0.0167615   0.0108179  )
        85           Si  tau(  85) = (   0.3716236   0.0167615   0.0320774  )
        86           Si  tau(  86) = (   0.5128947   0.0000000   0.0192663  )
        87           Si  tau(  87) = (   0.3826138   0.0000000   0.0379204  )
        88           Si  tau(  88) = (   0.4056580   0.0000000   0.0166364  )
        89           Al  tau(  89) = (   0.5396919   0.0000000   0.0370620  )
        90           Al  tau(  90) = (   0.5304794   0.0167615   0.0509101  )
        91           Al  tau(  91) = (   0.5535679   0.0167615   0.0463512  )
        92           Al  tau(  92) = (   0.5581119   0.0000000   0.0091119  )
        93           Al  tau(  93) = (   0.5812896   0.0000000   0.0045508  )
        94           Al  tau(  94) = (   0.5720585   0.0167615   0.0184944  )
        95           Al  tau(  95) = (   0.5951736   0.0167615   0.0138662  )
        96           Al  tau(  96) = (   0.6090292   0.0000000   0.0231579  )
        97           Al  tau(  97) = (   0.5028317   0.0167615   0.0321022  )
        98           Al  tau(  98) = (   0.5262029   0.0167615   0.0278439  )
        99           Al  tau(  99) = (   0.5158738   0.0000000   0.0414226  )
       100           Al  tau( 100) = (   0.5348103   0.0000000   0.0137034  )
       101           Al  tau( 101) = (   0.5490071   0.0167615   0.0230423  )
       102           Al  tau( 102) = (   0.5627176   0.0000000   0.0324020  )
       103           Al  tau( 103) = (   0.5858870   0.0000000   0.0278108  )
       104           Al  tau( 104) = (   0.5766432   0.0167615   0.0417526  )
       105           Al  tau( 105) = (   0.5997826   0.0167615   0.0371133  )
       106           Al  tau( 106) = (   0.5904804   0.0000000   0.0510511  )
       107           Al  tau( 107) = (   0.6136258   0.0000000   0.0464270  )
       108           Al  tau( 108) = (   0.6183085   0.0167615   0.0092244  )
       109           Al  tau( 109) = (   0.6321655   0.0000000   0.0185558  )
       110           Al  tau( 110) = (   0.5216320   0.0167615   0.0039260  )
       111           Al  tau( 111) = (   0.6598942   0.0000000   0.0372052  )
       112           Al  tau( 112) = (   0.6645695   0.0167615   0.0000112  )
       113           Al  tau( 113) = (   0.6737623   0.0167615   0.0465091  )
       114           Al  tau( 114) = (   0.6784354   0.0000000   0.0093168  )
       115           Al  tau( 115) = (   0.7015892   0.0000000   0.0046700  )
       116           Al  tau( 116) = (   0.6923131   0.0167615   0.0186163  )
       117           Al  tau( 117) = (   0.7154767   0.0167615   0.0139657  )
       118           Al  tau( 118) = (   0.7293631   0.0000000   0.0232601  )
       119           Al  tau( 119) = (   0.6228946   0.0167615   0.0324898  )
       120           Al  tau( 120) = (   0.6460312   0.0167615   0.0278921  )
       121           Al  tau( 121) = (   0.6367566   0.0000000   0.0418243  )
       122           Al  tau( 122) = (   0.6553034   0.0000000   0.0139526  )
       123           Al  tau( 123) = (   0.6691661   0.0167615   0.0232634  )
       124           Al  tau( 124) = (   0.6830363   0.0000000   0.0325628  )
       125           Al  tau( 125) = (   0.7061973   0.0000000   0.0279127  )
       126           Al  tau( 126) = (   0.6969198   0.0167615   0.0418596  )
       127           Al  tau( 127) = (   0.7200845   0.0167615   0.0372076  )
       128           Al  tau( 128) = (   0.7247534   0.0000000   0.0000183  )
       129           Al  tau( 129) = (   0.7339715   0.0000000   0.0465016  )
       130           Al  tau( 130) = (   0.7386405   0.0167615   0.0093127  )
       131           Al  tau( 131) = (   0.7525296   0.0000000   0.0186071  )
       132           Al  tau( 132) = (   0.6414427   0.0167615   0.0046274  )
       133           Al  tau( 133) = (   0.7803307   0.0000000   0.0372031  )
       134           Al  tau( 134) = (   0.7849928   0.0167615   0.0000122  )
       135           Al  tau( 135) = (   0.7942448   0.0167615   0.0465050  )
       136           Al  tau( 136) = (   0.7989048   0.0000000   0.0093133  )
       137           Al  tau( 137) = (   0.8221060   0.0000000   0.0046716  )
       138           Al  tau( 138) = (   0.8128200   0.0167615   0.0186162  )
       139           Al  tau( 139) = (   0.8360157   0.0167615   0.0139769  )
       140           Al  tau( 140) = (   0.8499230   0.0000000   0.0232786  )
       141           Al  tau( 141) = (   0.7432494   0.0167615   0.0325546  )
       142           Al  tau( 142) = (   0.7664246   0.0167615   0.0279038  )
       143           Al  tau( 143) = (   0.7571429   0.0000000   0.0418501  )
       144           Al  tau( 144) = (   0.7757087   0.0000000   0.0139576  )
       145           Al  tau( 145) = (   0.7896182   0.0167615   0.0232581  )
       146           Al  tau( 146) = (   0.8035316   0.0000000   0.0325606  )
       147           Al  tau( 147) = (   0.8267288   0.0000000   0.0279198  )
       148           Al  tau( 148) = (   0.8174459   0.0167615   0.0418654  )
       149           Al  tau( 149) = (   0.8406375   0.0167615   0.0372245  )
       150           Al  tau( 150) = (   0.8453021   0.0000000   0.0000330  )
       151           Al  tau( 151) = (   0.8545458   0.0000000   0.0465202  )
       152           Al  tau( 152) = (   0.8592152   0.0167615   0.0093366  )
       153           Al  tau( 153) = (   0.8731294   0.0000000   0.0186217  )
       154           Al  tau( 154) = (   0.7618089   0.0167615   0.0046604  )
       155           Al  tau( 155) = (   0.9009569   0.0000000   0.0370959  )
       156           Al  tau( 156) = (   0.8916822   0.0167615   0.0510716  )
       157           Al  tau( 157) = (   0.9148906   0.0167615   0.0463217  )
       158           Al  tau( 158) = (   0.9195301   0.0000000   0.0091480  )
       159           Al  tau( 159) = (   0.9426832   0.0000000   0.0044219  )
       160           Al  tau( 160) = (   0.9335048   0.0167615   0.0184045  )
       161           Al  tau( 161) = (   0.9565970   0.0167615   0.0136241  )
       162           Al  tau( 162) = (   0.9701435   0.0000000   0.0227624  )
       163           Al  tau( 163) = (   0.8638418   0.0167615   0.0325734  )
       164           Al  tau( 164) = (   0.8870551   0.0167615   0.0278774  )
       165           Al  tau( 165) = (   0.8777501   0.0000000   0.0418380  )
       166           Al  tau( 166) = (   0.8963161   0.0000000   0.0138992  )
       167           Al  tau( 167) = (   0.9102601   0.0167615   0.0231219  )
       168           Al  tau( 168) = (   0.9241477   0.0000000   0.0323426  )
       169           Al  tau( 169) = (   0.9472748   0.0000000   0.0276706  )
       170           Al  tau( 170) = (   0.9381319   0.0167615   0.0416308  )
       171           Al  tau( 171) = (   0.9614983   0.0167615   0.0369415  )
       172           Al  tau( 172) = (   0.9518924   0.0000000   0.0508787  )
       173           Al  tau( 173) = (   0.9747482   0.0000000   0.0466096  )
       174           Al  tau( 174) = (   0.9804857   0.0167615   0.0091761  )
       175           Al  tau( 175) = (   0.9935998   0.0000000   0.0183887  )
       176           Al  tau( 176) = (   0.8824152   0.0167615   0.0046616  )

   Crystallographic axes

     site n.     atom                  positions (cryst. coord.)
         1           Mg  tau(   1) = (  0.0310562  0.0000000  0.0124163  )
         2           Mg  tau(   2) = (  0.0408043  0.5000000  0.3755398  )
         3           Mg  tau(   3) = (  0.0504113  0.5000000  0.9276653  )
         4           Mg  tau(   4) = (  0.0753193  0.0000000  0.0699352  )
         5           Mg  tau(   5) = (  0.0848392  0.0000000  0.6240489  )
         6           Si  tau(   6) = (  0.0380213  0.0000000  0.6657120  )
         7           Si  tau(   7) = (  0.0556696  0.0000000  0.2513287  )
         8           Si  tau(   8) = (  0.0575642  0.0000000  0.6404624  )
         9           Si  tau(   9) = (  0.0681822  0.5000000  0.3594498  )
        10           Si  tau(  10) = (  0.0703126  0.5000000  0.7494558  )
        11           Si  tau(  11) = (  0.0876909  0.5000000  0.3307470  )
        12           Mg  tau(  12) = (  0.0951124  0.5000000  0.9915099  )
        13           Mg  tau(  13) = (  0.1054403  0.0000000  0.3596020  )
        14           Mg  tau(  14) = (  0.1149964  0.0000000  0.9150840  )
        15           Mg  tau(  15) = (  0.0102691  0.5000000  0.0877453  )
        16           Mg  tau(  16) = (  0.0202106  0.5000000  0.6339714  )
        17           Si  tau(  17) = (  0.1027100  0.5000000  0.6541170  )
        18           Si  tau(  18) = (  0.1199964  0.5000000  0.2372042  )
        19           Si  tau(  19) = (  0.9944784  0.5000000  0.6117502  )
        20           Si  tau(  20) = (  0.1326390  0.0000000  0.3499020  )
        21           Si  tau(  21) = (  0.0078076  0.0000000  0.7749649  )
        22           Si  tau(  22) = (  0.0225595  0.0000000  0.3447053  )
        23           Mg  tau(  23) = (  0.1597992  0.0000000  0.9882126  )
        24           Mg  tau(  24) = (  0.1701143  0.5000000  0.3572185  )
        25           Mg  tau(  25) = (  0.1796683  0.5000000  0.9128638  )
        26           Mg  tau(  26) = (  0.2045834  0.0000000  0.0637226  )
        27           Mg  tau(  27) = (  0.2141246  0.0000000  0.6197691  )
        28           Si  tau(  28) = (  0.1673288  0.0000000  0.6501248  )
        29           Si  tau(  29) = (  0.1846697  0.0000000  0.2359082  )
        30           Si  tau(  30) = (  0.1869613  0.0000000  0.6269208  )
        31           Si  tau(  31) = (  0.1972738  0.5000000  0.3499426  )
        32           Si  tau(  32) = (  0.1995801  0.5000000  0.7409137  )
        33           Si  tau(  33) = (  0.2168812  0.5000000  0.3264336  )
        34           Mg  tau(  34) = (  0.2244067  0.5000000  0.9885296  )
        35           Mg  tau(  35) = (  0.2346753  0.0000000  0.3572177  )
        36           Mg  tau(  36) = (  0.2442130  0.0000000  0.9129460  )
        37           Mg  tau(  37) = (  0.1399285  0.5000000  0.0635136  )
        38           Mg  tau(  38) = (  0.1494777  0.5000000  0.6191845  )
        39           Si  tau(  39) = (  0.2319127  0.5000000  0.6504645  )
        40           Si  tau(  40) = (  0.2491924  0.5000000  0.2358070  )
        41           Si  tau(  41) = (  0.1222745  0.5000000  0.6278586  )
        42           Si  tau(  42) = (  0.2617672  0.0000000  0.3501386  )
        43           Si  tau(  43) = (  0.1348931  0.0000000  0.7407950  )
        44           Si  tau(  44) = (  0.1522625  0.0000000  0.3262648  )
        45           Mg  tau(  45) = (  0.2888574  0.0000000  0.9884807  )
        46           Mg  tau(  46) = (  0.2991120  0.5000000  0.3571520  )
        47           Mg  tau(  47) = (  0.3086407  0.5000000  0.9130726  )
        48           Mg  tau(  48) = (  0.3334852  0.0000000  0.0642915  )
        49           Mg  tau(  49) = (  0.3430168  0.0000000  0.6201575  )
        50           Si  tau(  50) = (  0.2963597  0.0000000  0.6505607  )
        51           Si  tau(  51) = (  0.3136155  0.0000000  0.2358377  )
        52           Si  tau(  52) = (  0.3159446  0.0000000  0.6268169  )
        53           Si  tau(  53) = (  0.3261885  0.5000000  0.3503951  )
        54           Si  tau(  54) = (  0.3285120  0.5000000  0.7414286  )
        55           Si  tau(  55) = (  0.3457808  0.5000000  0.3268664  )
        56           Mg  tau(  56) = (  0.3532758  0.5000000  0.9888896  )
        57           Mg  tau(  57) = (  0.3635500  0.0000000  0.3576846  )
        58           Mg  tau(  58) = (  0.3730722  0.0000000  0.9137040  )
        59           Mg  tau(  59) = (  0.2690697  0.5000000  0.0638843  )
        60           Mg  tau(  60) = (  0.2786000  0.5000000  0.6198372  )
        61           Si  tau(  61) = (  0.3607860  0.5000000  0.6510605  )
        62           Si  tau(  62) = (  0.3780852  0.5000000  0.2364053  )
        63           Si  tau(  63) = (  0.2515109  0.5000000  0.6268057  )
        64           Si  tau(  64) = (  0.3906508  0.0000000  0.3508130  )
        65           Si  tau(  65) = (  0.2640923  0.0000000  0.7411293  )
        66           Si  tau(  66) = (  0.2813536  0.0000000  0.3263908  )
        67           Mg  tau(  67) = (  0.4177527  0.0000000  0.9881220  )
        68           Mg  tau(  68) = (  0.4280030  0.5000000  0.3558354  )
        69           Mg  tau(  69) = (  0.4374729  0.5000000  0.9110763  )
        70           Mg  tau(  70) = (  0.4623814  0.0000000  0.0566758  )
        71           Mg  tau(  71) = (  0.4719495  0.0000000  0.6095690  )
        72           Si  tau(  72) = (  0.4251558  0.0000000  0.6492603  )
        73           Si  tau(  73) = (  0.4425218  0.0000000  0.2319450  )
        74           Si  tau(  74) = (  0.4446575  0.0000000  0.6219808  )
        75           Si  tau(  75) = (  0.4552088  0.5000000  0.3436176  )
        76           Si  tau(  76) = (  0.4571119  0.5000000  0.7327389  )
        77           Si  tau(  77) = (  0.4747467  0.5000000  0.3196315  )
        78           Mg  tau(  78) = (  0.4816692  0.5000000  0.9727272  )
        79           Mg  tau(  79) = (  0.4924712  0.0000000  0.3515686  )
        80           Mg  tau(  80) = (  0.5024313  0.0000000  0.8988324  )
        81           Mg  tau(  81) = (  0.3979395  0.5000000  0.0638006  )
        82           Mg  tau(  82) = (  0.4074697  0.5000000  0.6198582  )
        83           Si  tau(  83) = (  0.4901798  0.5000000  0.6410901  )
        84           Si  tau(  84) = (  0.5048587  0.5000000  0.2115495  )
        85           Si  tau(  85) = (  0.3803719  0.5000000  0.6272905  )
        86           Si  tau(  86) = (  0.5181492  0.0000000  0.3767635  )
        87           Si  tau(  87) = (  0.3929557  0.0000000  0.7415546  )
        88           Si  tau(  88) = (  0.4101952  0.0000000  0.3253331  )
        89           Al  tau(  89) = (  0.5497997  0.0000000  0.7247674  )
        90           Al  tau(  90) = (  0.5443640  0.5000000  0.9955747  )
        91           Al  tau(  91) = (  0.5662091  0.5000000  0.9064230  )
        92           Al  tau(  92) = (  0.5605969  0.0000000  0.1781884  )
        93           Al  tau(  93) = (  0.5825307  0.0000000  0.0889926  )
        94           Al  tau(  94) = (  0.5771025  0.5000000  0.3616685  )
        95           Al  tau(  95) = (  0.5989553  0.5000000  0.2711621  )
        96           Al  tau(  96) = (  0.6153450  0.0000000  0.4528651  )
        97           Al  tau(  97) = (  0.5115869  0.5000000  0.6277755  )
        98           Al  tau(  98) = (  0.5337967  0.5000000  0.5445032  )
        99           Al  tau(  99) = (  0.5271708  0.0000000  0.8100409  )
       100           Al  tau( 100) = (  0.5385476  0.0000000  0.2679781  )
       101           Al  tau( 101) = (  0.5552913  0.5000000  0.4506040  )
       102           Al  tau( 102) = (  0.5715545  0.0000000  0.6336399  )
       103           Al  tau( 103) = (  0.5934717  0.0000000  0.5438554  )
       104           Al  tau( 104) = (  0.5880303  0.5000000  0.8164943  )
       105           Al  tau( 105) = (  0.6099044  0.5000000  0.7257705  )
       106           Al  tau( 106) = (  0.6044034  0.0000000  0.9983327  )
       107           Al  tau( 107) = (  0.6262877  0.0000000  0.9079064  )
       108           Al  tau( 108) = (  0.6208242  0.5000000  0.1803877  )
       109           Al  tau( 109) = (  0.6372262  0.0000000  0.3628684  )
       110           Al  tau( 110) = (  0.5227027  0.5000000  0.0767750  )
       111           Al  tau( 111) = (  0.6700410  0.0000000  0.7275680  )
       112           Al  tau( 112) = (  0.6645725  0.5000000  0.0002186  )
       113           Al  tau( 113) = (  0.6864466  0.5000000  0.9095120  )
       114           Al  tau( 114) = (  0.6809764  0.0000000  0.1821961  )
       115           Al  tau( 115) = (  0.7028629  0.0000000  0.0913246  )
       116           Al  tau( 116) = (  0.6973902  0.5000000  0.3640520  )
       117           Al  tau( 117) = (  0.7192856  0.5000000  0.2731069  )
       118           Al  tau( 118) = (  0.7357068  0.0000000  0.4548634  )
       119           Al  tau( 119) = (  0.6317555  0.5000000  0.6353555  )
       120           Al  tau( 120) = (  0.6536381  0.5000000  0.5454456  )
       121           Al  tau( 121) = (  0.6481633  0.0000000  0.8178973  )
       122           Al  tau( 122) = (  0.6591087  0.0000000  0.2728514  )
       123           Al  tau( 123) = (  0.6755107  0.5000000  0.4549283  )
       124           Al  tau( 124) = (  0.6919171  0.0000000  0.6367840  )
       125           Al  tau( 125) = (  0.7138098  0.0000000  0.5458477  )
       126           Al  tau( 126) = (  0.7083360  0.5000000  0.8185883  )
       127           Al  tau( 127) = (  0.7302321  0.5000000  0.7276151  )
       128           Al  tau( 128) = (  0.7247584  0.0000000  0.0003587  )
       129           Al  tau( 129) = (  0.7466537  0.0000000  0.9093640  )
       130           Al  tau( 130) = (  0.7411804  0.5000000  0.1821155  )
       131           Al  tau( 131) = (  0.7576042  0.0000000  0.3638724  )
       132           Al  tau( 132) = (  0.6427047  0.5000000  0.0904912  )
       133           Al  tau( 133) = (  0.7904770  0.0000000  0.7275267  )
       134           Al  tau( 134) = (  0.7849961  0.5000000  0.0002392  )
       135           Al  tau( 135) = (  0.8069280  0.5000000  0.9094304  )
       136           Al  tau( 136) = (  0.8014448  0.0000000  0.1821268  )
       137           Al  tau( 137) = (  0.8233800  0.0000000  0.0913550  )
       138           Al  tau( 138) = (  0.8178972  0.5000000  0.3640506  )
       139           Al  tau( 139) = (  0.8398275  0.5000000  0.2733256  )
       140           Al  tau( 140) = (  0.8562717  0.0000000  0.4552251  )
       141           Al  tau( 141) = (  0.7521279  0.5000000  0.6366223  )
       142           Al  tau( 142) = (  0.7740347  0.5000000  0.5456748  )
       143           Al  tau( 143) = (  0.7685566  0.0000000  0.8184014  )
       144           Al  tau( 144) = (  0.7795153  0.0000000  0.2729489  )
       145           Al  tau( 145) = (  0.7959614  0.5000000  0.4548250  )
       146           Al  tau( 146) = (  0.8124118  0.0000000  0.6367406  )
       147           Al  tau( 147) = (  0.8343432  0.0000000  0.5459862  )
       148           Al  tau( 148) = (  0.8288637  0.5000000  0.8187012  )
       149           Al  tau( 149) = (  0.8507896  0.5000000  0.7279465  )
       150           Al  tau( 150) = (  0.8453111  0.0000000  0.0006446  )
       151           Al  tau( 151) = (  0.8672331  0.0000000  0.9097279  )
       152           Al  tau( 152) = (  0.8617616  0.5000000  0.1825817  )
       153           Al  tau( 153) = (  0.8782080  0.0000000  0.3641582  )
       154           Al  tau( 154) = (  0.7630800  0.5000000  0.0911375  )
       155           Al  tau( 155) = (  0.9110740  0.0000000  0.7254315  )
       156           Al  tau( 156) = (  0.9056109  0.5000000  0.9987337  )
       157           Al  tau( 157) = (  0.9275238  0.5000000  0.9058467  )
       158           Al  tau( 158) = (  0.9220250  0.0000000  0.1788936  )
       159           Al  tau( 159) = (  0.9438891  0.0000000  0.0864720  )
       160           Al  tau( 160) = (  0.9385242  0.5000000  0.3599103  )
       161           Al  tau( 161) = (  0.9603127  0.5000000  0.2664277  )
       162           Al  tau( 162) = (  0.9763514  0.0000000  0.4451319  )
       163           Al  tau( 163) = (  0.8727255  0.5000000  0.6369903  )
       164           Al  tau( 164) = (  0.8946580  0.5000000  0.5451583  )
       165           Al  tau( 165) = (  0.8891605  0.0000000  0.8181643  )
       166           Al  tau( 166) = (  0.9001068  0.0000000  0.2718071  )
       167           Al  tau( 167) = (  0.9165661  0.5000000  0.4521605  )
       168           Al  tau( 168) = (  0.9329684  0.0000000  0.6324765  )
       169           Al  tau( 169) = (  0.9548214  0.0000000  0.5411139  )
       170           Al  tau( 170) = (  0.9494857  0.5000000  0.8141124  )
       171           Al  tau( 171) = (  0.9715732  0.5000000  0.7224118  )
       172           Al  tau( 172) = (  0.9657684  0.0000000  0.9949611  )
       173           Al  tau( 173) = (  0.9874599  0.0000000  0.9114763  )
       174           Al  tau( 174) = (  0.9829883  0.5000000  0.1794433  )
       175           Al  tau( 175) = (  0.9986149  0.0000000  0.3596013  )
       176           Al  tau( 176) = (  0.8836865  0.5000000  0.0911593  )

     number of k points=   131  Methfessel-Paxton smearing, width (Ry)=  0.0441
                       cart. coord. in units 2pi/alat
        k(    1) = (   0.0000000   0.0000000   0.0000000), wk =   0.0076923
        k(    2) = (   0.0000000   0.0000000   1.5042732), wk =   0.0153846
        k(    3) = (   0.0000000   0.0000000   3.0085464), wk =   0.0153846
        k(    4) = (   0.0000000   0.0000000   4.5128196), wk =   0.0153846
        k(    5) = (   0.0000000   0.0000000   6.0170928), wk =   0.0153846
        k(    6) = (   0.0000000   0.0000000   7.5213661), wk =   0.0153846
        k(    7) = (   0.0000000   0.0000000   9.0256393), wk =   0.0153846
        k(    8) = (   0.0000000   1.4915145   0.0000000), wk =   0.0153846
        k(    9) = (   0.0000000   1.4915145   1.5042732), wk =   0.0153846
        k(   10) = (   0.0000000   1.4915145   3.0085464), wk =   0.0153846
        k(   11) = (   0.0000000   1.4915145   4.5128196), wk =   0.0153846
        k(   12) = (   0.0000000   1.4915145   6.0170928), wk =   0.0153846
        k(   13) = (   0.0000000   1.4915145   7.5213661), wk =   0.0153846
        k(   14) = (   0.0000000   1.4915145   9.0256393), wk =   0.0153846
        k(   15) = (   0.0000000   1.4915145  -9.0256393), wk =   0.0153846
        k(   16) = (   0.0000000   1.4915145  -7.5213661), wk =   0.0153846
        k(   17) = (   0.0000000   1.4915145  -6.0170928), wk =   0.0153846
        k(   18) = (   0.0000000   1.4915145  -4.5128196), wk =   0.0153846
        k(   19) = (   0.0000000   1.4915145  -3.0085464), wk =   0.0153846
        k(   20) = (   0.0000000   1.4915145  -1.5042732), wk =   0.0153846
        k(   21) = (   0.0000000   2.9830289   0.0000000), wk =   0.0153846
        k(   22) = (   0.0000000   2.9830289   1.5042732), wk =   0.0153846
        k(   23) = (   0.0000000   2.9830289   3.0085464), wk =   0.0153846
        k(   24) = (   0.0000000   2.9830289   4.5128196), wk =   0.0153846
        k(   25) = (   0.0000000   2.9830289   6.0170928), wk =   0.0153846
        k(   26) = (   0.0000000   2.9830289   7.5213661), wk =   0.0153846
        k(   27) = (   0.0000000   2.9830289   9.0256393), wk =   0.0153846
        k(   28) = (   0.0000000   2.9830289  -9.0256393), wk =   0.0153846
        k(   29) = (   0.0000000   2.9830289  -7.5213661), wk =   0.0153846
        k(   30) = (   0.0000000   2.9830289  -6.0170928), wk =   0.0153846
        k(   31) = (   0.0000000   2.9830289  -4.5128196), wk =   0.0153846
        k(   32) = (   0.0000000   2.9830289  -3.0085464), wk =   0.0153846
        k(   33) = (   0.0000000   2.9830289  -1.5042732), wk =   0.0153846
        k(   34) = (   0.0000000   4.4745434   0.0000000), wk =   0.0153846
        k(   35) = (   0.0000000   4.4745434   1.5042732), wk =   0.0153846
        k(   36) = (   0.0000000   4.4745434   3.0085464), wk =   0.0153846
        k(   37) = (   0.0000000   4.4745434   4.5128196), wk =   0.0153846
        k(   38) = (   0.0000000   4.4745434   6.0170928), wk =   0.0153846
        k(   39) = (   0.0000000   4.4745434   7.5213661), wk =   0.0153846
        k(   40) = (   0.0000000   4.4745434   9.0256393), wk =   0.0153846
        k(   41) = (   0.0000000   4.4745434  -9.0256393), wk =   0.0153846
        k(   42) = (   0.0000000   4.4745434  -7.5213661), wk =   0.0153846
        k(   43) = (   0.0000000   4.4745434  -6.0170928), wk =   0.0153846
        k(   44) = (   0.0000000   4.4745434  -4.5128196), wk =   0.0153846
        k(   45) = (   0.0000000   4.4745434  -3.0085464), wk =   0.0153846
        k(   46) = (   0.0000000   4.4745434  -1.5042732), wk =   0.0153846
        k(   47) = (   0.0000000   5.9660579   0.0000000), wk =   0.0153846
        k(   48) = (   0.0000000   5.9660579   1.5042732), wk =   0.0153846
        k(   49) = (   0.0000000   5.9660579   3.0085464), wk =   0.0153846
        k(   50) = (   0.0000000   5.9660579   4.5128196), wk =   0.0153846
        k(   51) = (   0.0000000   5.9660579   6.0170928), wk =   0.0153846
        k(   52) = (   0.0000000   5.9660579   7.5213661), wk =   0.0153846
        k(   53) = (   0.0000000   5.9660579   9.0256393), wk =   0.0153846
        k(   54) = (   0.0000000   5.9660579  -9.0256393), wk =   0.0153846
        k(   55) = (   0.0000000   5.9660579  -7.5213661), wk =   0.0153846
        k(   56) = (   0.0000000   5.9660579  -6.0170928), wk =   0.0153846
        k(   57) = (   0.0000000   5.9660579  -4.5128196), wk =   0.0153846
        k(   58) = (   0.0000000   5.9660579  -3.0085464), wk =   0.0153846
        k(   59) = (   0.0000000   5.9660579  -1.5042732), wk =   0.0153846
        k(   60) = (   0.0000000   7.4575723   0.0000000), wk =   0.0153846
        k(   61) = (   0.0000000   7.4575723   1.5042732), wk =   0.0153846
        k(   62) = (   0.0000000   7.4575723   3.0085464), wk =   0.0153846
        k(   63) = (   0.0000000   7.4575723   4.5128196), wk =   0.0153846
        k(   64) = (   0.0000000   7.4575723   6.0170928), wk =   0.0153846
        k(   65) = (   0.0000000   7.4575723   7.5213661), wk =   0.0153846
        k(   66) = (   0.0000000   7.4575723   9.0256393), wk =   0.0153846
        k(   67) = (   0.0000000   7.4575723  -9.0256393), wk =   0.0153846
        k(   68) = (   0.0000000   7.4575723  -7.5213661), wk =   0.0153846
        k(   69) = (   0.0000000   7.4575723  -6.0170928), wk =   0.0153846
        k(   70) = (   0.0000000   7.4575723  -4.5128196), wk =   0.0153846
        k(   71) = (   0.0000000   7.4575723  -3.0085464), wk =   0.0153846
        k(   72) = (   0.0000000   7.4575723  -1.5042732), wk =   0.0153846
        k(   73) = (   0.0000000   8.9490868   0.0000000), wk =   0.0153846
        k(   74) = (   0.0000000   8.9490868   1.5042732), wk =   0.0153846
        k(   75) = (   0.0000000   8.9490868   3.0085464), wk =   0.0153846
        k(   76) = (   0.0000000   8.9490868   4.5128196), wk =   0.0153846
        k(   77) = (   0.0000000   8.9490868   6.0170928), wk =   0.0153846
        k(   78) = (   0.0000000   8.9490868   7.5213661), wk =   0.0153846
        k(   79) = (   0.0000000   8.9490868   9.0256393), wk =   0.0153846
        k(   80) = (   0.0000000   8.9490868  -9.0256393), wk =   0.0153846
        k(   81) = (   0.0000000   8.9490868  -7.5213661), wk =   0.0153846
        k(   82) = (   0.0000000   8.9490868  -6.0170928), wk =   0.0153846
        k(   83) = (   0.0000000   8.9490868  -4.5128196), wk =   0.0153846
        k(   84) = (   0.0000000   8.9490868  -3.0085464), wk =   0.0153846
        k(   85) = (   0.0000000   8.9490868  -1.5042732), wk =   0.0153846
        k(   86) = (   0.0000000  10.4406013   0.0000000), wk =   0.0153846
        k(   87) = (   0.0000000  10.4406013   1.5042732), wk =   0.0153846
        k(   88) = (   0.0000000  10.4406013   3.0085464), wk =   0.0153846
        k(   89) = (   0.0000000  10.4406013   4.5128196), wk =   0.0153846
        k(   90) = (   0.0000000  10.4406013   6.0170928), wk =   0.0153846
        k(   91) = (   0.0000000  10.4406013   7.5213661), wk =   0.0153846
        k(   92) = (   0.0000000  10.4406013   9.0256393), wk =   0.0153846
        k(   93) = (   0.0000000  10.4406013  -9.0256393), wk =   0.0153846
        k(   94) = (   0.0000000  10.4406013  -7.5213661), wk =   0.0153846
        k(   95) = (   0.0000000  10.4406013  -6.0170928), wk =   0.0153846
        k(   96) = (   0.0000000  10.4406013  -4.5128196), wk =   0.0153846
        k(   97) = (   0.0000000  10.4406013  -3.0085464), wk =   0.0153846
        k(   98) = (   0.0000000  10.4406013  -1.5042732), wk =   0.0153846
        k(   99) = (   0.0000000  11.9321157   0.0000000), wk =   0.0153846
        k(  100) = (   0.0000000  11.9321157   1.5042732), wk =   0.0153846
        k(  101) = (   0.0000000  11.9321157   3.0085464), wk =   0.0153846
        k(  102) = (   0.0000000  11.9321157   4.5128196), wk =   0.0153846
        k(  103) = (   0.0000000  11.9321157   6.0170928), wk =   0.0153846
        k(  104) = (   0.0000000  11.9321157   7.5213661), wk =   0.0153846
        k(  105) = (   0.0000000  11.9321157   9.0256393), wk =   0.0153846
        k(  106) = (   0.0000000  11.9321157  -9.0256393), wk =   0.0153846
        k(  107) = (   0.0000000  11.9321157  -7.5213661), wk =   0.0153846
        k(  108) = (   0.0000000  11.9321157  -6.0170928), wk =   0.0153846
        k(  109) = (   0.0000000  11.9321157  -4.5128196), wk =   0.0153846
        k(  110) = (   0.0000000  11.9321157  -3.0085464), wk =   0.0153846
        k(  111) = (   0.0000000  11.9321157  -1.5042732), wk =   0.0153846
        k(  112) = (   0.0000000  13.4236302   0.0000000), wk =   0.0153846
        k(  113) = (   0.0000000  13.4236302   1.5042732), wk =   0.0153846
        k(  114) = (   0.0000000  13.4236302   3.0085464), wk =   0.0153846
        k(  115) = (   0.0000000  13.4236302   4.5128196), wk =   0.0153846
        k(  116) = (   0.0000000  13.4236302   6.0170928), wk =   0.0153846
        k(  117) = (   0.0000000  13.4236302   7.5213661), wk =   0.0153846
        k(  118) = (   0.0000000  13.4236302   9.0256393), wk =   0.0153846
        k(  119) = (   0.0000000  13.4236302  -9.0256393), wk =   0.0153846
        k(  120) = (   0.0000000  13.4236302  -7.5213661), wk =   0.0153846
        k(  121) = (   0.0000000  13.4236302  -6.0170928), wk =   0.0153846
        k(  122) = (   0.0000000  13.4236302  -4.5128196), wk =   0.0153846
        k(  123) = (   0.0000000  13.4236302  -3.0085464), wk =   0.0153846
        k(  124) = (   0.0000000  13.4236302  -1.5042732), wk =   0.0153846
        k(  125) = (   0.0000000 -14.9151446   0.0000000), wk =   0.0076923
        k(  126) = (   0.0000000 -14.9151446   1.5042732), wk =   0.0153846
        k(  127) = (   0.0000000 -14.9151446   3.0085464), wk =   0.0153846
        k(  128) = (   0.0000000 -14.9151446   4.5128196), wk =   0.0153846
        k(  129) = (   0.0000000 -14.9151446   6.0170928), wk =   0.0153846
        k(  130) = (   0.0000000 -14.9151446   7.5213661), wk =   0.0153846
        k(  131) = (   0.0000000 -14.9151446   9.0256393), wk =   0.0153846

                       cryst. coord.
        k(    1) = (   0.0000000   0.0000000   0.0000000), wk =   0.0076923
        k(    2) = (   0.0000000   0.0000000   0.0769231), wk =   0.0153846
        k(    3) = (   0.0000000   0.0000000   0.1538462), wk =   0.0153846
        k(    4) = (   0.0000000   0.0000000   0.2307692), wk =   0.0153846
        k(    5) = (   0.0000000   0.0000000   0.3076923), wk =   0.0153846
        k(    6) = (   0.0000000   0.0000000   0.3846154), wk =   0.0153846
        k(    7) = (   0.0000000   0.0000000   0.4615385), wk =   0.0153846
        k(    8) = (   0.0000000   0.0500000   0.0000000), wk =   0.0153846
        k(    9) = (   0.0000000   0.0500000   0.0769231), wk =   0.0153846
        k(   10) = (   0.0000000   0.0500000   0.1538462), wk =   0.0153846
        k(   11) = (   0.0000000   0.0500000   0.2307692), wk =   0.0153846
        k(   12) = (   0.0000000   0.0500000   0.3076923), wk =   0.0153846
        k(   13) = (   0.0000000   0.0500000   0.3846154), wk =   0.0153846
        k(   14) = (   0.0000000   0.0500000   0.4615385), wk =   0.0153846
        k(   15) = (   0.0000000   0.0500000  -0.4615385), wk =   0.0153846
        k(   16) = (   0.0000000   0.0500000  -0.3846154), wk =   0.0153846
        k(   17) = (   0.0000000   0.0500000  -0.3076923), wk =   0.0153846
        k(   18) = (   0.0000000   0.0500000  -0.2307692), wk =   0.0153846
        k(   19) = (   0.0000000   0.0500000  -0.1538462), wk =   0.0153846
        k(   20) = (   0.0000000   0.0500000  -0.0769231), wk =   0.0153846
        k(   21) = (   0.0000000   0.1000000   0.0000000), wk =   0.0153846
        k(   22) = (   0.0000000   0.1000000   0.0769231), wk =   0.0153846
        k(   23) = (   0.0000000   0.1000000   0.1538462), wk =   0.0153846
        k(   24) = (   0.0000000   0.1000000   0.2307692), wk =   0.0153846
        k(   25) = (   0.0000000   0.1000000   0.3076923), wk =   0.0153846
        k(   26) = (   0.0000000   0.1000000   0.3846154), wk =   0.0153846
        k(   27) = (   0.0000000   0.1000000   0.4615385), wk =   0.0153846
        k(   28) = (   0.0000000   0.1000000  -0.4615385), wk =   0.0153846
        k(   29) = (   0.0000000   0.1000000  -0.3846154), wk =   0.0153846
        k(   30) = (   0.0000000   0.1000000  -0.3076923), wk =   0.0153846
        k(   31) = (   0.0000000   0.1000000  -0.2307692), wk =   0.0153846
        k(   32) = (   0.0000000   0.1000000  -0.1538462), wk =   0.0153846
        k(   33) = (   0.0000000   0.1000000  -0.0769231), wk =   0.0153846
        k(   34) = (   0.0000000   0.1500000   0.0000000), wk =   0.0153846
        k(   35) = (   0.0000000   0.1500000   0.0769231), wk =   0.0153846
        k(   36) = (   0.0000000   0.1500000   0.1538462), wk =   0.0153846
        k(   37) = (   0.0000000   0.1500000   0.2307692), wk =   0.0153846
        k(   38) = (   0.0000000   0.1500000   0.3076923), wk =   0.0153846
        k(   39) = (   0.0000000   0.1500000   0.3846154), wk =   0.0153846
        k(   40) = (   0.0000000   0.1500000   0.4615385), wk =   0.0153846
        k(   41) = (   0.0000000   0.1500000  -0.4615385), wk =   0.0153846
        k(   42) = (   0.0000000   0.1500000  -0.3846154), wk =   0.0153846
        k(   43) = (   0.0000000   0.1500000  -0.3076923), wk =   0.0153846
        k(   44) = (   0.0000000   0.1500000  -0.2307692), wk =   0.0153846
        k(   45) = (   0.0000000   0.1500000  -0.1538462), wk =   0.0153846
        k(   46) = (   0.0000000   0.1500000  -0.0769231), wk =   0.0153846
        k(   47) = (   0.0000000   0.2000000   0.0000000), wk =   0.0153846
        k(   48) = (   0.0000000   0.2000000   0.0769231), wk =   0.0153846
        k(   49) = (   0.0000000   0.2000000   0.1538462), wk =   0.0153846
        k(   50) = (   0.0000000   0.2000000   0.2307692), wk =   0.0153846
        k(   51) = (   0.0000000   0.2000000   0.3076923), wk =   0.0153846
        k(   52) = (   0.0000000   0.2000000   0.3846154), wk =   0.0153846
        k(   53) = (   0.0000000   0.2000000   0.4615385), wk =   0.0153846
        k(   54) = (   0.0000000   0.2000000  -0.4615385), wk =   0.0153846
        k(   55) = (   0.0000000   0.2000000  -0.3846154), wk =   0.0153846
        k(   56) = (   0.0000000   0.2000000  -0.3076923), wk =   0.0153846
        k(   57) = (   0.0000000   0.2000000  -0.2307692), wk =   0.0153846
        k(   58) = (   0.0000000   0.2000000  -0.1538462), wk =   0.0153846
        k(   59) = (   0.0000000   0.2000000  -0.0769231), wk =   0.0153846
        k(   60) = (   0.0000000   0.2500000   0.0000000), wk =   0.0153846
        k(   61) = (   0.0000000   0.2500000   0.0769231), wk =   0.0153846
        k(   62) = (   0.0000000   0.2500000   0.1538462), wk =   0.0153846
        k(   63) = (   0.0000000   0.2500000   0.2307692), wk =   0.0153846
        k(   64) = (   0.0000000   0.2500000   0.3076923), wk =   0.0153846
        k(   65) = (   0.0000000   0.2500000   0.3846154), wk =   0.0153846
        k(   66) = (   0.0000000   0.2500000   0.4615385), wk =   0.0153846
        k(   67) = (   0.0000000   0.2500000  -0.4615385), wk =   0.0153846
        k(   68) = (   0.0000000   0.2500000  -0.3846154), wk =   0.0153846
        k(   69) = (   0.0000000   0.2500000  -0.3076923), wk =   0.0153846
        k(   70) = (   0.0000000   0.2500000  -0.2307692), wk =   0.0153846
        k(   71) = (   0.0000000   0.2500000  -0.1538462), wk =   0.0153846
        k(   72) = (   0.0000000   0.2500000  -0.0769231), wk =   0.0153846
        k(   73) = (   0.0000000   0.3000000   0.0000000), wk =   0.0153846
        k(   74) = (   0.0000000   0.3000000   0.0769231), wk =   0.0153846
        k(   75) = (   0.0000000   0.3000000   0.1538462), wk =   0.0153846
        k(   76) = (   0.0000000   0.3000000   0.2307692), wk =   0.0153846
        k(   77) = (   0.0000000   0.3000000   0.3076923), wk =   0.0153846
        k(   78) = (   0.0000000   0.3000000   0.3846154), wk =   0.0153846
        k(   79) = (   0.0000000   0.3000000   0.4615385), wk =   0.0153846
        k(   80) = (   0.0000000   0.3000000  -0.4615385), wk =   0.0153846
        k(   81) = (   0.0000000   0.3000000  -0.3846154), wk =   0.0153846
        k(   82) = (   0.0000000   0.3000000  -0.3076923), wk =   0.0153846
        k(   83) = (   0.0000000   0.3000000  -0.2307692), wk =   0.0153846
        k(   84) = (   0.0000000   0.3000000  -0.1538462), wk =   0.0153846
        k(   85) = (   0.0000000   0.3000000  -0.0769231), wk =   0.0153846
        k(   86) = (   0.0000000   0.3500000   0.0000000), wk =   0.0153846
        k(   87) = (   0.0000000   0.3500000   0.0769231), wk =   0.0153846
        k(   88) = (   0.0000000   0.3500000   0.1538462), wk =   0.0153846
        k(   89) = (   0.0000000   0.3500000   0.2307692), wk =   0.0153846
        k(   90) = (   0.0000000   0.3500000   0.3076923), wk =   0.0153846
        k(   91) = (   0.0000000   0.3500000   0.3846154), wk =   0.0153846
        k(   92) = (   0.0000000   0.3500000   0.4615385), wk =   0.0153846
        k(   93) = (   0.0000000   0.3500000  -0.4615385), wk =   0.0153846
        k(   94) = (   0.0000000   0.3500000  -0.3846154), wk =   0.0153846
        k(   95) = (   0.0000000   0.3500000  -0.3076923), wk =   0.0153846
        k(   96) = (   0.0000000   0.3500000  -0.2307692), wk =   0.0153846
        k(   97) = (   0.0000000   0.3500000  -0.1538462), wk =   0.0153846
        k(   98) = (   0.0000000   0.3500000  -0.0769231), wk =   0.0153846
        k(   99) = (   0.0000000   0.4000000   0.0000000), wk =   0.0153846
        k(  100) = (   0.0000000   0.4000000   0.0769231), wk =   0.0153846
        k(  101) = (   0.0000000   0.4000000   0.1538462), wk =   0.0153846
        k(  102) = (   0.0000000   0.4000000   0.2307692), wk =   0.0153846
        k(  103) = (   0.0000000   0.4000000   0.3076923), wk =   0.0153846
        k(  104) = (   0.0000000   0.4000000   0.3846154), wk =   0.0153846
        k(  105) = (   0.0000000   0.4000000   0.4615385), wk =   0.0153846
        k(  106) = (   0.0000000   0.4000000  -0.4615385), wk =   0.0153846
        k(  107) = (   0.0000000   0.4000000  -0.3846154), wk =   0.0153846
        k(  108) = (   0.0000000   0.4000000  -0.3076923), wk =   0.0153846
        k(  109) = (   0.0000000   0.4000000  -0.2307692), wk =   0.0153846
        k(  110) = (   0.0000000   0.4000000  -0.1538462), wk =   0.0153846
        k(  111) = (   0.0000000   0.4000000  -0.0769231), wk =   0.0153846
        k(  112) = (   0.0000000   0.4500000   0.0000000), wk =   0.0153846
        k(  113) = (   0.0000000   0.4500000   0.0769231), wk =   0.0153846
        k(  114) = (   0.0000000   0.4500000   0.1538462), wk =   0.0153846
        k(  115) = (   0.0000000   0.4500000   0.2307692), wk =   0.0153846
        k(  116) = (   0.0000000   0.4500000   0.3076923), wk =   0.0153846
        k(  117) = (   0.0000000   0.4500000   0.3846154), wk =   0.0153846
        k(  118) = (   0.0000000   0.4500000   0.4615385), wk =   0.0153846
        k(  119) = (   0.0000000   0.4500000  -0.4615385), wk =   0.0153846
        k(  120) = (   0.0000000   0.4500000  -0.3846154), wk =   0.0153846
        k(  121) = (   0.0000000   0.4500000  -0.3076923), wk =   0.0153846
        k(  122) = (   0.0000000   0.4500000  -0.2307692), wk =   0.0153846
        k(  123) = (   0.0000000   0.4500000  -0.1538462), wk =   0.0153846
        k(  124) = (   0.0000000   0.4500000  -0.0769231), wk =   0.0153846
        k(  125) = (   0.0000000  -0.5000000   0.0000000), wk =   0.0076923
        k(  126) = (   0.0000000  -0.5000000   0.0769231), wk =   0.0153846
        k(  127) = (   0.0000000  -0.5000000   0.1538462), wk =   0.0153846
        k(  128) = (   0.0000000  -0.5000000   0.2307692), wk =   0.0153846
        k(  129) = (   0.0000000  -0.5000000   0.3076923), wk =   0.0153846
        k(  130) = (   0.0000000  -0.5000000   0.3846154), wk =   0.0153846
        k(  131) = (   0.0000000  -0.5000000   0.4615385), wk =   0.0153846

     Dense  grid:  2771027 G-vectors     FFT dimensions: (1458,  50,  80)

     Smooth grid:   701299 G-vectors     FFT dimensions: ( 960,  32,  50)

     Dynamical RAM for                 wfc:      47.82 MB

     Dynamical RAM for     wfc (w. buffer):    1625.93 MB

     Dynamical RAM for           str. fact:      14.09 MB

     Dynamical RAM for           local pot:       0.00 MB

     Dynamical RAM for          nlocal pot:     411.09 MB

     Dynamical RAM for                qrad:     174.96 MB

     Dynamical RAM for          rho,v,vnew:      29.11 MB

     Dynamical RAM for               rhoin:       9.70 MB

     Dynamical RAM for            rho*nmix:      75.17 MB

     Dynamical RAM for           G-vectors:      18.21 MB

     Dynamical RAM for          h,s,v(r/c):      18.99 MB

     Dynamical RAM for          <psi|beta>:      13.60 MB

     Dynamical RAM for                 psi:     191.29 MB

     Dynamical RAM for                hpsi:     191.29 MB

     Dynamical RAM for                spsi:     191.29 MB

     Dynamical RAM for      wfcinit/wfcrot:     220.46 MB

     Dynamical RAM for           addusdens:     325.34 MB

     Dynamical RAM for          addusforce:     839.29 MB

     Dynamical RAM for         addusstress:     237.84 MB

     Estimated static dynamical RAM per process >       2.35 GB

     Estimated max dynamical RAM per process >       3.17 GB

     Estimated total dynamical RAM >     113.95 GB

     Initial potential from superposition of free atoms

     starting charge  535.73466, renormalised to  536.00000
     Starting wfcs are  704 randomized atomic wfcs
