begin
comment 176 atoms, species Al88Mg40Si48
lattice    228.6993420448     0.0000000000     0.0000000000
lattice      0.0000000000     7.6666880434     0.0000000000
lattice     -3.1894410242     0.0000000000    11.6947695548
atom      7.0629217804     0.0000000000     0.1452012123   Mg  0.0 0.0    5.13149961e-05 -4.99999962e-09  2.06474984e-04
atom      8.1341266286     3.8333440217     4.3918735548   Mg  0.0 0.0   -8.35969937e-04 -0.00000000e+00 -3.15639976e-04
atom      8.5702334039     3.8333440217    10.8489021683   Mg  0.0 0.0   -2.85269979e-04 -4.99999962e-09  1.21849991e-05
atom     17.0024238850     0.0000000000     0.8178745870   Mg  0.0 0.0    3.49569974e-04  0.00000000e+00  6.79049949e-05
atom     17.4122531059     0.0000000000     7.2981619236   Mg  0.0 0.0    6.49599951e-05 -0.00000000e+00  4.65549965e-05
atom      6.5721558623     0.0000000000     7.7854058718   Si  0.0 0.0    8.10194939e-04  2.49999981e-08 -4.15254969e-04
atom     11.9299868281     0.0000000000     2.9392439440   Si  0.0 0.0    2.53219981e-04  4.99999962e-09  5.23399961e-04
atom     11.1221292723     0.0000000000     7.4901092814   Si  0.0 0.0   -4.29309968e-04  4.99999962e-09 -8.91599933e-05
atom     14.4467544775     3.8333440217     4.2037226061   Si  0.0 0.0    8.81009934e-04  9.99999925e-09 -1.32579990e-04
atom     13.6900569645     3.8333440217     8.7647879342   Si  0.0 0.0    3.63694973e-04 -1.99999985e-08 -2.13954984e-04
atom     18.9999296783     3.8333440217     3.8680377119   Si  0.0 0.0   -9.01599932e-05 -9.99999925e-09 -6.93424948e-04
atom     18.5897345384     3.8333440217    11.5955597802   Mg  0.0 0.0    2.11099984e-05 -0.00000000e+00  1.47739989e-04
atom     22.9671771647     0.0000000000     4.2054835911   Mg  0.0 0.0   -6.52999951e-05  4.99999962e-09  2.04249985e-05
atom     23.3809171444     0.0000000000    10.7017798816   Mg  0.0 0.0   -3.54664973e-04 -4.99999962e-09  1.01179992e-04
atom      2.0686770285     3.8333440217     1.0261739478   Mg  0.0 0.0   -4.67384465e-03 -0.00000000e+00  9.47779929e-04
atom      2.6000828197     3.8333440217     7.4142039697   Mg  0.0 0.0   -1.02368492e-03 -0.00000000e+00 -2.00337485e-03
atom     21.4033996736     3.8333440217     7.6498100319   Si  0.0 0.0    4.80214964e-04 -9.99999925e-09  7.86319941e-04
atom     26.6865374343     3.8333440217     2.7740772791   Si  0.0 0.0   -5.06299962e-04  1.49999989e-08  2.63204980e-04
atom    225.4853615812     3.8333440217     7.1543329074   Si  0.0 0.0   -7.15354446e-03  1.99999985e-08  1.91123986e-03
atom     29.2184221102     0.0000000000     4.0920487174   Si  0.0 0.0    9.76869927e-04 -1.49999989e-08  3.48349974e-04
atom     -0.6861666359     0.0000000000     9.0631033560   Si  0.0 0.0   -1.13289941e-02 -1.99999985e-08  1.45026989e-03
atom      4.0599164598     0.0000000000     4.0312833022   Si  0.0 0.0   -6.17418454e-03  0.00000000e+00  1.86009986e-04
atom     33.3940604372     0.0000000000    11.5570010712   Mg  0.0 0.0   -6.64099950e-05  0.00000000e+00  5.82399956e-05
atom     37.7656941002     3.8333440217     4.1776280112   Mg  0.0 0.0   -1.40909989e-04 -4.99999962e-09 -8.51249936e-05
atom     38.1784278028     3.8333440217    10.6757996363   Mg  0.0 0.0   -4.75384964e-04  0.00000000e+00 -3.31399975e-05
atom     46.5848438680     0.0000000000     0.7452168061   Mg  0.0 0.0    3.27844975e-04  0.00000000e+00  4.61299965e-05
atom     46.9934152426     0.0000000000     7.2480996376   Mg  0.0 0.0   -8.57499936e-06  0.00000000e+00  6.43949952e-05
atom     36.1943924008     0.0000000000     7.6031096263   Si  0.0 0.0    2.21109983e-04  0.00000000e+00  7.11834947e-04
atom     41.4813951803     0.0000000000     2.7589145128   Si  0.0 0.0   -5.96699955e-04 -9.99999925e-09  1.18599991e-04
atom     40.7583393405     0.0000000000     7.3317578569   Si  0.0 0.0   -1.02645492e-03  4.99999962e-09 -2.57029981e-04
atom     44.0002439938     3.8333440217     4.0925289860   Si  0.0 0.0    8.86214933e-04  1.49999989e-08  2.82819979e-04
atom     43.2806872539     3.8333440217     8.6648691917   Si  0.0 0.0    4.83274964e-04 -4.99999962e-09 -1.13689991e-04
atom     48.5594339872     3.8333440217     3.8175866370   Si  0.0 0.0   -3.93039970e-04 -4.99999962e-09 -7.40189944e-04
atom     48.1687469012     3.8333440217    11.5607060005   Mg  0.0 0.0   -4.79399964e-05  0.00000000e+00 -3.22499976e-06
atom     52.5307294520     0.0000000000     4.1776051413   Mg  0.0 0.0   -1.15239991e-04  0.00000000e+00 -6.71499950e-05
atom     52.9395066560     0.0000000000    10.6767601736   Mg  0.0 0.0   -4.39434967e-04 -4.99999962e-09 -5.83999956e-05
atom     31.7989968761     3.8333440217     0.7427925930   Mg  0.0 0.0    3.65409973e-04 -0.00000000e+00  1.05119992e-04
atom     32.2105413421     3.8333440217     7.2412843972   Mg  0.0 0.0    7.62649943e-05  4.99999962e-09  8.10949939e-05
atom     50.9636129505     3.8333440217     7.6070889948   Si  0.0 0.0    2.53569981e-04  4.99999962e-09  7.23189946e-04
atom     56.2380372663     3.8333440217     2.7577252762   Si  0.0 0.0   -5.38334960e-04  4.99999962e-09  1.41499989e-04
atom     25.9615376501     3.8333440217     7.3427125554   Si  0.0 0.0   -1.14989991e-03  0.00000000e+00 -1.91104986e-04
atom     58.7492017818     0.0000000000     4.0948159794   Si  0.0 0.0    9.17354931e-04 -9.99999925e-09  2.86329978e-04
atom     28.4872017039     0.0000000000     8.6634969956   Si  0.0 0.0    4.63124965e-04  0.00000000e+00 -8.44449937e-05
atom     33.7817058219     0.0000000000     3.8156198227   Si  0.0 0.0   -2.82119979e-04  0.00000000e+00 -7.33064945e-04
atom     62.9087396751     0.0000000000    11.5601342521   Mg  0.0 0.0   -1.50799989e-05  4.99999962e-09 -2.95999978e-06
atom     67.2675661750     3.8333440217     4.1768504334   Mg  0.0 0.0   -6.96899948e-05 -0.00000000e+00 -7.23899946e-05
atom     67.6736904666     3.8333440217    10.6782467193   Mg  0.0 0.0   -3.98229970e-04 -0.00000000e+00 -6.23099953e-05
atom     76.0627939916     0.0000000000     0.7518719569   Mg  0.0 0.0    4.25424968e-04  0.00000000e+00  4.81349964e-05
atom     76.4697187309     0.0000000000     7.2526507545   Mg  0.0 0.0    1.00194992e-04 -0.00000000e+00  7.45699944e-05
atom     65.7023021381     0.0000000000     7.6082096216   Si  0.0 0.0    3.14959976e-04  4.99999962e-09  7.46589944e-04
atom     70.9714434991     0.0000000000     2.7580911951   Si  0.0 0.0   -4.83134964e-04  4.99999962e-09  1.45814989e-04
atom     70.2570782343     0.0000000000     7.3305228805   Si  0.0 0.0   -9.64879927e-04 -9.99999925e-09 -2.76544979e-04
atom     73.4814873879     3.8333440217     4.0978119408   Si  0.0 0.0    9.83279926e-04 -0.00000000e+00  2.96324978e-04
atom     72.7657041871     3.8333440217     8.6709068543   Si  0.0 0.0    5.24204961e-04  0.00000000e+00 -1.46589989e-04
atom     78.0372926311     3.8333440217     3.8226637624   Si  0.0 0.0   -2.56534981e-04  0.00000000e+00 -7.32384945e-04
atom     77.6398817844     3.8333440217    11.5649140684   Mg  0.0 0.0    4.84299964e-05  4.99999962e-09 -2.49299981e-05
atom     82.0028020025     0.0000000000     4.1830710555   Mg  0.0 0.0   -6.88349948e-05 -0.00000000e+00 -6.17949954e-05
atom     82.4070966994     0.0000000000    10.6856337080   Mg  0.0 0.0   -3.72359972e-04 -0.00000000e+00 -8.41599937e-05
atom     61.3323151104     3.8333440217     0.7471150106   Mg  0.0 0.0    3.69904972e-04  4.99999962e-09  5.56499958e-05
atom     61.7386681013     3.8333440217     7.2489000853   Mg  0.0 0.0    4.72199965e-05  0.00000000e+00  6.76299949e-05
atom     80.4349536631     3.8333440217     7.6140643248   Si  0.0 0.0    3.20284976e-04 -9.99999925e-09  7.46899944e-04
atom     85.7138147461     3.8333440217     2.7647234760   Si  0.0 0.0   -4.88609963e-04  9.99999925e-09  1.50764989e-04
atom     55.5211791787     3.8333440217     7.3304085308   Si  0.0 0.0   -9.97239925e-04 -0.00000000e+00 -2.70534980e-04
atom     88.2226693983     0.0000000000     4.1027061067   Si  0.0 0.0    1.02355992e-03 -1.49999989e-08  2.29654983e-04
atom     58.0338988497     0.0000000000     8.6674077544   Si  0.0 0.0    4.80764964e-04 -0.00000000e+00 -1.35739990e-04
atom     63.3043666669     0.0000000000     3.8170834985   Si  0.0 0.0   -3.35734975e-04 -4.99999962e-09 -7.31449945e-04
atom     92.3881534744     0.0000000000    11.5559490542   Mg  0.0 0.0   -7.77999942e-05 -0.00000000e+00 -1.78434987e-04
atom     96.7490611383     3.8333440217     4.1614360978   Mg  0.0 0.0   -6.61999950e-05 -4.99999962e-09  1.40149989e-05
atom     97.1438876825     3.8333440217    10.6548965165   Mg  0.0 0.0   -2.66479980e-04  0.00000000e+00 -4.77649964e-05
atom    105.5655579938     0.0000000000     0.6628164331   Mg  0.0 0.0    4.44094967e-04  4.99999962e-09  1.13489991e-04
atom    105.9903212818     0.0000000000     7.1288100608   Mg  0.0 0.0    3.68694972e-04 -4.99999962e-09  9.68749927e-05
atom     95.1620249242     0.0000000000     7.5930011154   Si  0.0 0.0    1.83994986e-04  9.99999925e-09  8.14184939e-04
atom    100.4646478688     0.0000000000     2.7125571561   Si  0.0 0.0   -3.05369977e-04  4.99999962e-09  2.10164984e-04
atom     99.7090709826     0.0000000000     7.2739655332   Si  0.0 0.0   -9.04664932e-04 -0.00000000e+00 -5.42999959e-05
atom    103.0099800660     3.8333440217     4.0185676188   Si  0.0 0.0    1.01471992e-03  9.99999925e-09  1.68414987e-04
atom    102.2041121945     3.8333440217     8.5692728667   Si  0.0 0.0    1.19249991e-04 -9.99999925e-09 -4.02049970e-04
atom    107.5547848709     3.8333440217     3.7380450059   Si  0.0 0.0   -4.57264966e-04 -9.99999925e-09 -6.71439950e-04
atom    107.0548938490     3.8333440217    11.3758940622   Mg  0.0 0.0    2.39854982e-04  0.00000000e+00  8.51499936e-06
atom    111.5065265419     0.0000000000     4.1115339013   Mg  0.0 0.0    3.70854972e-04  4.99999962e-09 -6.62549950e-05
atom    112.0388700004     0.0000000000    10.5117078584   Mg  0.0 0.0   -6.12999954e-05  4.99999962e-09  4.26499968e-05
atom     90.8050051491     3.8333440217     0.7461316034   Mg  0.0 0.0    3.42169974e-04  4.99999962e-09 -5.33249960e-05
atom     91.2110150910     3.8333440217     7.2491516546   Mg  0.0 0.0    7.44449944e-05 -0.00000000e+00 -7.43499944e-06
atom    110.0590426663     3.8333440217     7.4974505303   Si  0.0 0.0   -3.61819973e-04 -4.99999962e-09  1.75449987e-04
atom    114.7860979768     3.8333440217     2.4740466123   Si  0.0 0.0   -7.49809944e-04  1.49999989e-08 -2.86149978e-05
atom     84.9900728083     3.8333440217     7.3360802745   Si  0.0 0.0   -9.65309927e-04  9.99999925e-09 -3.30079975e-04
atom    117.2986804282     0.0000000000     4.4061901336   Si  0.0 0.0   -2.24999983e-05 -4.99999962e-09  4.91054963e-04
atom     87.5035243172     0.0000000000     8.6723705301   Si  0.0 0.0    5.19319961e-04 -9.99999925e-09 -2.47804981e-04
atom     92.7737176952     0.0000000000     3.8047337340   Si  0.0 0.0   -2.69774980e-04  4.99999962e-09 -6.82729949e-04
atom    123.4271824369     0.0000000000     8.4760550149   Al  0.0 0.0    3.64284973e-04 -9.99999925e-09  8.10749939e-05
atom    121.3202897483     3.8333440217    11.6431063734   Al  0.0 0.0    3.49869974e-04  1.49999989e-08  4.94199963e-05
atom    126.6006145071     3.8333440217    10.6004889430   Al  0.0 0.0   -1.34179990e-04 -1.49999989e-08 -2.03904985e-04
atom    127.6398243173     0.0000000000     2.0838855348   Al  0.0 0.0   -8.68299935e-05  0.00000000e+00 -3.34644975e-04
atom    132.9405490575     0.0000000000     1.0407649658   Al  0.0 0.0    1.48369989e-04  1.49999989e-08 -1.28979990e-04
atom    130.8294025611     3.8333440217     4.2296571115   Al  0.0 0.0   -6.69699950e-05 -9.99999925e-09 -1.17199991e-05
atom    136.1158107224     3.8333440217     3.1711908167   Al  0.0 0.0   -1.96949985e-05 -9.99999925e-09 -7.60199943e-05
atom    139.2845773260     0.0000000000     5.2961964931   Al  0.0 0.0   -4.23499968e-05 -9.99999925e-09  4.45699967e-05
atom    114.9972789492     3.8333440217     7.3417520182   Al  0.0 0.0    1.18644991e-04 -0.00000000e+00 -2.96149978e-04
atom    120.3422570120     3.8333440217     6.3678816100   Al  0.0 0.0    4.13179969e-04  4.99999962e-09  1.31839990e-04
atom    117.9799986381     0.0000000000     9.4733213658   Al  0.0 0.0   -4.57664966e-04 -1.99999985e-08 -2.60049980e-04
atom    122.3107637288     0.0000000000     3.1339585638   Al  0.0 0.0   -8.46149936e-05 -9.99999925e-09  2.21834983e-04
atom    125.5575625479     3.8333440217     5.2697588492   Al  0.0 0.0    2.21854983e-04 -0.00000000e+00 -2.42949982e-05
atom    128.6931448770     0.0000000000     7.4103160809   Al  0.0 0.0   -1.11389992e-04  4.99999962e-09 -2.30944983e-04
atom    133.9919714126     0.0000000000     6.3603116617   Al  0.0 0.0    4.61499965e-05  4.99999962e-09 -6.90049948e-05
atom    131.8779204346     3.8333440217     9.5487921487   Al  0.0 0.0    1.94049985e-05 -9.99999925e-09 -4.07599969e-05
atom    137.1698859899     3.8333440217     8.4877872911   Al  0.0 0.0    4.61699965e-05  9.99999925e-09  1.04664992e-04
atom    135.0424789703     0.0000000000    11.6753529807   Al  0.0 0.0   -2.67899980e-05  9.99999925e-09 -3.65899972e-05
atom    140.3358167217     0.0000000000    10.6178243531   Al  0.0 0.0    3.24649976e-05 -9.99999925e-09  2.70349980e-05
atom    141.4067471307     3.8333440217     2.1096142108   Al  0.0 0.0    1.81499986e-05  9.99999925e-09  3.89799971e-05
atom    144.5758339134     0.0000000000     4.2436992511   Al  0.0 0.0   -1.14949991e-05 -9.99999925e-09  1.02849992e-05
atom    119.2968951895     3.8333440217     0.8978736169   Al  0.0 0.0    9.83299926e-05  9.99999925e-09 -1.28284990e-04
atom    150.9173693591     0.0000000000     8.5088047606   Al  0.0 0.0    3.07349977e-05  4.99999962e-09 -2.64799980e-05
atom    151.9866073930     3.8333440217     0.0025614326   Al  0.0 0.0    1.32499990e-05  1.49999989e-08 -2.79699979e-05
atom    154.0889947046     3.8333440217    10.6366005691   Al  0.0 0.0    7.47899944e-05 -4.99999962e-09  6.35499952e-06
atom    155.1577295999     0.0000000000     2.1307460300   Al  0.0 0.0    3.16049976e-05 -4.99999962e-09 -1.17899991e-05
atom    160.4529884257     0.0000000000     1.0680259273   Al  0.0 0.0    4.59249965e-05  4.99999962e-09  5.99999955e-08
atom    158.3315504590     3.8333440217     4.2575355613   Al  0.0 0.0    4.52999966e-05 -0.00000000e+00  9.37499930e-06
atom    163.6290505384     3.8333440217     3.1939464012   Al  0.0 0.0    2.36999982e-06 -4.99999962e-09 -2.40499982e-06
atom    166.8048610817     0.0000000000     5.3195695659   Al  0.0 0.0   -5.53999958e-06  0.00000000e+00  1.62999988e-06
atom    142.4555851832     3.8333440217     7.4303958832   Al  0.0 0.0   -2.26299983e-05  1.49999989e-08  1.98449985e-05
atom    147.7469103804     3.8333440217     6.3789049182   Al  0.0 0.0    3.40249974e-05  1.49999989e-08 -4.39349967e-05
atom    145.6258154627     0.0000000000     9.5651898915   Al  0.0 0.0   -5.15949961e-05 -1.49999989e-08 -1.58599988e-05
atom    149.8674564197     0.0000000000     3.1909504398   Al  0.0 0.0    9.63999928e-06 -1.49999989e-08 -2.09449984e-05
atom    153.0378467887     3.8333440217     5.3203242737   Al  0.0 0.0    7.82049941e-05 -4.99999962e-09  8.39999937e-07
atom    156.2099524027     0.0000000000     7.4470909351   Al  0.0 0.0    6.77999949e-05  1.49999989e-08  1.42549989e-05
atom    161.5068578638     0.0000000000     6.3836161247   Al  0.0 0.0    1.45149989e-05  9.99999925e-09 -1.66949987e-05
atom    159.3850997180     3.8333440217     9.5732629783   Al  0.0 0.0    3.44399974e-05 -9.99999925e-09  2.99999977e-08
atom    164.6828513666     3.8333440217     8.5093536391   Al  0.0 0.0   -1.46499989e-06 -0.00000000e+00 -5.76499957e-06
atom    165.7506257247     0.0000000000     0.0041851980   Al  0.0 0.0   -1.01749992e-05  1.49999989e-08 -7.83499941e-06
atom    167.8587991296     0.0000000000    10.6348853240   Al  0.0 0.0    2.22399983e-05 -1.49999989e-08  1.64499988e-06
atom    168.9265963576     3.8333440217     2.1298083627   Al  0.0 0.0    6.39499952e-06  0.00000000e+00 -4.04999970e-07
atom    172.1030243892     0.0000000000     4.2554315274   Al  0.0 0.0    4.29299968e-05 -4.99999962e-09  9.71499927e-06
atom    146.6975234494     3.8333440217     1.0582833354   Al  0.0 0.0    5.67199957e-05  1.49999989e-08  3.84099971e-05
atom    178.4611176673     0.0000000000     8.5083244920   Al  0.0 0.0    5.59199958e-05  4.99999962e-09  1.22749991e-05
atom    179.5273368699     3.8333440217     0.0027901320   Al  0.0 0.0    7.49249944e-05 -0.00000000e+00  2.52449981e-05
atom    181.6432631825     3.8333440217    10.6356629018   Al  0.0 0.0    5.97499955e-06 -4.99999962e-09  5.49999959e-06
atom    182.7090021164     0.0000000000     2.1299455823   Al  0.0 0.0    1.45599989e-05 -4.99999962e-09  1.53199988e-05
atom    188.0151012910     0.0000000000     1.0683918463   Al  0.0 0.0   -2.14749984e-05 -4.99999962e-09 -1.15649991e-05
atom    185.8913992008     3.8333440217     4.2575126914   Al  0.0 0.0   -1.05199992e-05 -9.99999925e-09  8.33499937e-06
atom    191.1962405291     3.8333440217     3.1965078338   Al  0.0 0.0    1.04799992e-05 -9.99999925e-09 -8.25999938e-06
atom    194.3768308887     0.0000000000     5.3238005037   Al  0.0 0.0   -5.01699962e-05 -4.99999962e-09 -3.65199973e-05
atom    169.9806487552     3.8333440217     7.4452156005   Al  0.0 0.0    4.86349963e-05  0.00000000e+00  1.37399990e-05
atom    175.2808017469     3.8333440217     6.3815807005   Al  0.0 0.0    8.73349934e-05 -4.99999962e-09  1.48499989e-05
atom    173.1580830639     0.0000000000     9.5710903345   Al  0.0 0.0    7.85599941e-05 -0.00000000e+00  2.12649984e-05
atom    177.4040693084     0.0000000000     3.1920939365   Al  0.0 0.0    7.35399945e-05 -4.99999962e-09  1.48049989e-05
atom    180.5851628066     3.8333440217     5.3191121672   Al  0.0 0.0    2.96149978e-05  4.99999962e-09  1.94399985e-05
atom    183.7671482322     0.0000000000     7.4465877966   Al  0.0 0.0   -1.02449992e-05  9.99999925e-09 -1.62999988e-06
atom    189.0723326094     0.0000000000     6.3852398900   Al  0.0 0.0   -8.04999939e-06  1.49999989e-08 -2.79999979e-07
atom    186.9493394872     3.8333440217     9.5745894344   Al  0.0 0.0    6.89499948e-06  0.00000000e+00  4.06999969e-06
atom    192.2532431481     3.8333440217     8.5132186579   Al  0.0 0.0    8.51999936e-06  1.49999989e-08 -5.41999959e-06
atom    193.3200340990     0.0000000000     0.0075470783   Al  0.0 0.0   -1.26399991e-05 -0.00000000e+00  1.75999987e-06
atom    195.4340622071     0.0000000000    10.6391391318   Al  0.0 0.0   -4.10949969e-05 -9.99999925e-09 -8.52449936e-05
atom    196.5019509149     3.8333440217     2.1352742769   Al  0.0 0.0    1.50299989e-05  9.99999925e-09 -2.53799981e-05
atom    199.6841192999     0.0000000000     4.2587705378   Al  0.0 0.0    2.80899979e-05 -1.49999989e-08 -4.78499964e-05
atom    174.2251941938     3.8333440217     1.0658304137   Al  0.0 0.0    6.88099948e-05  9.99999925e-09  1.40249989e-05
atom    206.0482502407     0.0000000000     8.4838079226   Al  0.0 0.0   -4.34599967e-05 -0.00000000e+00  1.02454992e-04
atom    203.9271324530     3.8333440217    11.6800413172   Al  0.0 0.0   -9.35249930e-05 -0.00000000e+00  3.39999974e-06
atom    209.2348782629     3.8333440217    10.5937423124   Al  0.0 0.0    5.06599962e-05 -9.99999925e-09  1.58704988e-04
atom    210.2959288603     0.0000000000     2.0921415810   Al  0.0 0.0   -3.30209975e-04  4.99999962e-09 -5.33499960e-06
atom    215.5910275966     0.0000000000     1.0112856206   Al  0.0 0.0    3.65439973e-04  9.99999925e-09  9.28899930e-05
atom    213.4919335556     3.8333440217     4.2090970407   Al  0.0 0.0   -3.19099976e-05 -0.00000000e+00  1.14134991e-04
atom    218.7731045020     3.8333440217     3.1158227060   Al  0.0 0.0    9.78864926e-04 -0.00000000e+00  6.04064955e-04
atom    221.8711801390     0.0000000000     5.2057459034   Al  0.0 0.0    3.78392972e-03 -0.00000000e+00  3.44490474e-03
atom    197.5600512908     3.8333440217     7.4495151482   Al  0.0 0.0   -8.41999937e-06  1.99999985e-08 -8.22549938e-05
atom    202.8689177274     3.8333440217     6.3755430379   Al  0.0 0.0   -2.46899981e-05  4.99999962e-09 -3.72349972e-05
atom    200.7408703497     0.0000000000     9.5683230725   Al  0.0 0.0   -4.52999966e-05 -1.49999989e-08 -1.22339991e-04
atom    204.9869023341     0.0000000000     3.1787378949   Al  0.0 0.0   -3.20549976e-05 -4.99999962e-09 -1.72189987e-04
atom    208.1758859596     3.8333440217     5.2879633168   Al  0.0 0.0   -1.12504992e-04  4.99999962e-09 -3.51499974e-06
atom    211.3519709422     0.0000000000     7.3967313400   Al  0.0 0.0    1.42759989e-04  4.99999962e-09 -1.09269992e-04
atom    216.6411234956     0.0000000000     6.3282480140   Al  0.0 0.0   -7.04474947e-04  9.99999925e-09  1.13749991e-04
atom    214.5501482812     3.8333440217     9.5209365688   Al  0.0 0.0    8.22999938e-05 -1.99999985e-08  1.55414988e-04
atom    219.8940285872     3.8333440217     8.4484967441   Al  0.0 0.0    3.37378475e-03 -9.99999925e-09 -8.16369939e-04
atom    217.6971655774     0.0000000000    11.6359252141   Al  0.0 0.0   -1.08434492e-03  0.00000000e+00  1.86594986e-04
atom    222.9242719993     0.0000000000    10.6595848530   Al  0.0 0.0    1.26007191e-02 -9.99999925e-09 -3.88341971e-03
atom    224.2364344743     3.8333440217     2.0985680325   Al  0.0 0.0    1.32432990e-03  9.99999925e-09  9.40074929e-04
atom    227.2356205158     0.0000000000     4.2054835911   Al  0.0 0.0    8.58944435e-03  4.99999962e-09 -2.07085484e-03
atom    201.8077756503     3.8333440217     1.0661048529   Al  0.0 0.0    9.91999925e-06  9.99999925e-09 -8.56999936e-05
energy -2.684348504558453e+03
charge 0.0000
end
