begin
comment 4 atoms, species Al4
lattice      7.6370200257     0.0000000000     0.0000000000
lattice      0.0000000000     7.6370200257     0.0000000000
lattice      0.0000000000     0.0000000000     7.6370200257
atom      0.0000000000     0.0000000000     0.0000000000   Al  0.0 0.0      -0.0000000000    -0.0000000000    -0.0000000000
atom      0.0000000000     3.8185100128     3.8185100128   Al  0.0 0.0      -0.0000000000     0.0000000000     0.0000000000
atom      3.8185100128     0.0000000000     3.8185100128   Al  0.0 0.0       0.0000000000    -0.0000000000     0.0000000000
atom      3.8185100128     3.8185100128     0.0000000000   Al  0.0 0.0       0.0000000000     0.0000000000    -0.0000000000
energy -79.0054965053
charge 0.0000
end
