begin
comment 256 atoms, species Al255Mg
lattice     30.5480801028     0.0000000000     0.0000000000
lattice      0.0000000000    30.5480801028     0.0000000000
lattice      0.0000000000     0.0000000000    30.5480801028
atom     -0.0000000000    -0.0000000000    -0.0000000000   Mg  0.0 0.0       0.0000000000     0.0000000000     0.0000000000
atom     -0.0000000000     3.8622334929     3.8622334929   Al  0.0 0.0       0.0000000000    -0.0000013618    -0.0000013618
atom      3.8622334929    -0.0000000000     3.8622334929   Al  0.0 0.0      -0.0000013618     0.0000000000    -0.0000013618
atom      3.8622334929     3.8622334929    -0.0000000000   Al  0.0 0.0      -0.0000013618    -0.0000013618     0.0000000000
atom     -0.0000000000    -0.0000000000     7.6377223053   Al  0.0 0.0       0.0000000000     0.0000000000    -0.0000002458
atom     -0.0000000000     3.8182960764    11.4605980335   Al  0.0 0.0       0.0000000000    -0.0000005174    -0.0000004660
atom      3.8182960764    -0.0000000000    11.4605980335   Al  0.0 0.0      -0.0000005174     0.0000000000    -0.0000004660
atom      3.8264711985     3.8264711985     7.6522175695   Al  0.0 0.0       0.0000000283     0.0000000283     0.0000008145
atom     -0.0000000000    -0.0000000000    15.2740400514   Al  0.0 0.0       0.0000000000     0.0000000000     0.0000000000
atom     -0.0000000000     3.8182960764    19.0874820693   Al  0.0 0.0       0.0000000000    -0.0000005174     0.0000004660
atom      3.8182960764    -0.0000000000    19.0874820693   Al  0.0 0.0      -0.0000005174     0.0000000000     0.0000004660
atom      3.8196418006     3.8196418006    15.2740400514   Al  0.0 0.0       0.0000002031     0.0000002031     0.0000000000
atom     -0.0000000000    -0.0000000000    22.9103577975   Al  0.0 0.0       0.0000000000     0.0000000000     0.0000002458
atom     -0.0000000000     3.8622334929    26.6858466099   Al  0.0 0.0       0.0000000000    -0.0000013618     0.0000013618
atom      3.8622334929    -0.0000000000    26.6858466099   Al  0.0 0.0      -0.0000013618     0.0000000000     0.0000013618
atom      3.8264711985     3.8264711985    22.8958625333   Al  0.0 0.0       0.0000000283     0.0000000283    -0.0000008145
atom     -0.0000000000     7.6377223053    -0.0000000000   Al  0.0 0.0       0.0000000000    -0.0000002458     0.0000000000
atom     -0.0000000000    11.4605980335     3.8182960764   Al  0.0 0.0       0.0000000000    -0.0000004660    -0.0000005174
atom      3.8264711985     7.6522175695     3.8264711985   Al  0.0 0.0       0.0000000283     0.0000008145     0.0000000283
atom      3.8182960764    11.4605980335    -0.0000000000   Al  0.0 0.0      -0.0000005174    -0.0000004660     0.0000000000
atom     -0.0000000000     7.6480580191     7.6480580191   Al  0.0 0.0       0.0000000000     0.0000000371     0.0000000371
atom     -0.0000000000    11.4579678156    11.4579678156   Al  0.0 0.0       0.0000000000    -0.0000002854    -0.0000002854
atom      3.8202881096     7.6402143251    11.4593567218   Al  0.0 0.0       0.0000002318    -0.0000001388     0.0000000822
atom      3.8202881096    11.4593567218     7.6402143251   Al  0.0 0.0       0.0000002318     0.0000000822    -0.0000001388
atom     -0.0000000000     7.6370066337    15.2740400514   Al  0.0 0.0       0.0000000000     0.0000001895     0.0000000000
atom     -0.0000000000    11.4579678156    19.0901122872   Al  0.0 0.0       0.0000000000    -0.0000002854     0.0000002854
atom      3.8202881096     7.6402143251    19.0887233810   Al  0.0 0.0       0.0000002318    -0.0000001388    -0.0000000822
atom      3.8187007459    11.4564324481    15.2740400514   Al  0.0 0.0      -0.0000010719    -0.0000003321     0.0000000000
atom     -0.0000000000     7.6480580191    22.9000220837   Al  0.0 0.0       0.0000000000     0.0000000371    -0.0000000371
atom     -0.0000000000    11.4605980335    26.7297840264   Al  0.0 0.0       0.0000000000    -0.0000004660     0.0000005174
atom      3.8264711985     7.6522175695    26.7216089043   Al  0.0 0.0       0.0000000283     0.0000008145    -0.0000000283
atom      3.8202881096    11.4593567218    22.9078657777   Al  0.0 0.0       0.0000002318     0.0000000822     0.0000001388
atom     -0.0000000000    15.2740400514    -0.0000000000   Al  0.0 0.0       0.0000000000     0.0000000000     0.0000000000
atom     -0.0000000000    19.0874820693     3.8182960764   Al  0.0 0.0       0.0000000000     0.0000004660    -0.0000005174
atom      3.8196418006    15.2740400514     3.8196418006   Al  0.0 0.0       0.0000002031     0.0000000000     0.0000002031
atom      3.8182960764    19.0874820693    -0.0000000000   Al  0.0 0.0      -0.0000005174     0.0000004660     0.0000000000
atom     -0.0000000000    15.2740400514     7.6370066337   Al  0.0 0.0       0.0000000000     0.0000000000     0.0000001895
atom     -0.0000000000    19.0901122872    11.4579678156   Al  0.0 0.0       0.0000000000     0.0000002854    -0.0000002854
atom      3.8187007459    15.2740400514    11.4564324481   Al  0.0 0.0      -0.0000010719     0.0000000000    -0.0000003321
atom      3.8202881096    19.0887233810     7.6402143251   Al  0.0 0.0       0.0000002318    -0.0000000822    -0.0000001388
atom     -0.0000000000    15.2740400514    15.2740400514   Al  0.0 0.0       0.0000000000     0.0000000000     0.0000000000
atom     -0.0000000000    19.0901122872    19.0901122872   Al  0.0 0.0       0.0000000000     0.0000002854     0.0000002854
atom      3.8187007459    15.2740400514    19.0916476546   Al  0.0 0.0      -0.0000010719     0.0000000000     0.0000003321
atom      3.8187007459    19.0916476546    15.2740400514   Al  0.0 0.0      -0.0000010719     0.0000003321     0.0000000000
atom     -0.0000000000    15.2740400514    22.9110734691   Al  0.0 0.0       0.0000000000     0.0000000000    -0.0000001895
atom     -0.0000000000    19.0874820693    26.7297840264   Al  0.0 0.0       0.0000000000     0.0000004660     0.0000005174
atom      3.8196418006    15.2740400514    26.7284383022   Al  0.0 0.0       0.0000002031     0.0000000000    -0.0000002031
atom      3.8202881096    19.0887233810    22.9078657777   Al  0.0 0.0       0.0000002318    -0.0000000822     0.0000001388
atom     -0.0000000000    22.9103577975    -0.0000000000   Al  0.0 0.0       0.0000000000     0.0000002458     0.0000000000
atom     -0.0000000000    26.6858466099     3.8622334929   Al  0.0 0.0       0.0000000000     0.0000013618    -0.0000013618
atom      3.8264711985    22.8958625333     3.8264711985   Al  0.0 0.0       0.0000000283    -0.0000008145     0.0000000283
atom      3.8622334929    26.6858466099    -0.0000000000   Al  0.0 0.0      -0.0000013618     0.0000013618     0.0000000000
atom     -0.0000000000    22.9000220837     7.6480580191   Al  0.0 0.0       0.0000000000    -0.0000000371     0.0000000371
atom     -0.0000000000    26.7297840264    11.4605980335   Al  0.0 0.0       0.0000000000     0.0000005174    -0.0000004660
atom      3.8202881096    22.9078657777    11.4593567218   Al  0.0 0.0       0.0000002318     0.0000001388     0.0000000822
atom      3.8264711985    26.7216089043     7.6522175695   Al  0.0 0.0       0.0000000283    -0.0000000283     0.0000008145
atom     -0.0000000000    22.9110734691    15.2740400514   Al  0.0 0.0       0.0000000000    -0.0000001895     0.0000000000
atom     -0.0000000000    26.7297840264    19.0874820693   Al  0.0 0.0       0.0000000000     0.0000005174     0.0000004660
atom      3.8202881096    22.9078657777    19.0887233810   Al  0.0 0.0       0.0000002318     0.0000001388    -0.0000000822
atom      3.8196418006    26.7284383022    15.2740400514   Al  0.0 0.0       0.0000002031    -0.0000002031     0.0000000000
atom     -0.0000000000    22.9000220837    22.9000220837   Al  0.0 0.0       0.0000000000    -0.0000000371    -0.0000000371
atom     -0.0000000000    26.6858466099    26.6858466099   Al  0.0 0.0       0.0000000000     0.0000013618     0.0000013618
atom      3.8264711985    22.8958625333    26.7216089043   Al  0.0 0.0       0.0000000283    -0.0000008145    -0.0000000283
atom      3.8264711985    26.7216089043    22.8958625333   Al  0.0 0.0       0.0000000283    -0.0000000283    -0.0000008145
atom      7.6377223053    -0.0000000000    -0.0000000000   Al  0.0 0.0      -0.0000002458     0.0000000000     0.0000000000
atom      7.6522175695     3.8264711985     3.8264711985   Al  0.0 0.0       0.0000008145     0.0000000283     0.0000000283
atom     11.4605980335    -0.0000000000     3.8182960764   Al  0.0 0.0      -0.0000004660     0.0000000000    -0.0000005174
atom     11.4605980335     3.8182960764    -0.0000000000   Al  0.0 0.0      -0.0000004660    -0.0000005174     0.0000000000
atom      7.6480580191    -0.0000000000     7.6480580191   Al  0.0 0.0       0.0000000371     0.0000000000     0.0000000371
atom      7.6402143251     3.8202881096    11.4593567218   Al  0.0 0.0      -0.0000001388     0.0000002318     0.0000000822
atom     11.4579678156    -0.0000000000    11.4579678156   Al  0.0 0.0      -0.0000002854     0.0000000000    -0.0000002854
atom     11.4593567218     3.8202881096     7.6402143251   Al  0.0 0.0       0.0000000822     0.0000002318    -0.0000001388
atom      7.6370066337    -0.0000000000    15.2740400514   Al  0.0 0.0       0.0000001895     0.0000000000     0.0000000000
atom      7.6402143251     3.8202881096    19.0887233810   Al  0.0 0.0      -0.0000001388     0.0000002318    -0.0000000822
atom     11.4579678156    -0.0000000000    19.0901122872   Al  0.0 0.0      -0.0000002854     0.0000000000     0.0000002854
atom     11.4564324481     3.8187007459    15.2740400514   Al  0.0 0.0      -0.0000003321    -0.0000010719     0.0000000000
atom      7.6480580191    -0.0000000000    22.9000220837   Al  0.0 0.0       0.0000000371     0.0000000000    -0.0000000371
atom      7.6522175695     3.8264711985    26.7216089043   Al  0.0 0.0       0.0000008145     0.0000000283    -0.0000000283
atom     11.4605980335    -0.0000000000    26.7297840264   Al  0.0 0.0      -0.0000004660     0.0000000000     0.0000005174
atom     11.4593567218     3.8202881096    22.9078657777   Al  0.0 0.0       0.0000000822     0.0000002318     0.0000001388
atom      7.6480580191     7.6480580191    -0.0000000000   Al  0.0 0.0       0.0000000371     0.0000000371     0.0000000000
atom      7.6402143251    11.4593567218     3.8202881096   Al  0.0 0.0      -0.0000001388     0.0000000822     0.0000002318
atom     11.4593567218     7.6402143251     3.8202881096   Al  0.0 0.0       0.0000000822    -0.0000001388     0.0000002318
atom     11.4579678156    11.4579678156    -0.0000000000   Al  0.0 0.0      -0.0000002854    -0.0000002854     0.0000000000
atom      7.6424106252     7.6424106252     7.6424106252   Al  0.0 0.0       0.0000010394     0.0000010394     0.0000010394
atom      7.6386566321    11.4578113126    11.4578113126   Al  0.0 0.0      -0.0000001131     0.0000002110     0.0000002110
atom     11.4578113126     7.6386566321    11.4578113126   Al  0.0 0.0       0.0000002110    -0.0000001131     0.0000002110
atom     11.4578113126    11.4578113126     7.6386566321   Al  0.0 0.0       0.0000002110     0.0000002110    -0.0000001131
atom      7.6387229896     7.6387229896    15.2740400514   Al  0.0 0.0      -0.0000005512    -0.0000005512     0.0000000000
atom      7.6386566321    11.4578113126    19.0902687902   Al  0.0 0.0      -0.0000001131     0.0000002110    -0.0000002110
atom     11.4578113126     7.6386566321    19.0902687902   Al  0.0 0.0       0.0000002110    -0.0000001131    -0.0000002110
atom     11.4562435653    11.4562435653    15.2740400514   Al  0.0 0.0       0.0000000969     0.0000000969     0.0000000000
atom      7.6424106252     7.6424106252    22.9056694776   Al  0.0 0.0       0.0000010394     0.0000010394    -0.0000010394
atom      7.6402143251    11.4593567218    26.7277919932   Al  0.0 0.0      -0.0000001388     0.0000000822    -0.0000002318
atom     11.4593567218     7.6402143251    26.7277919932   Al  0.0 0.0       0.0000000822    -0.0000001388    -0.0000002318
atom     11.4578113126    11.4578113126    22.9094234707   Al  0.0 0.0       0.0000002110     0.0000002110     0.0000001131
atom      7.6370066337    15.2740400514    -0.0000000000   Al  0.0 0.0       0.0000001895     0.0000000000     0.0000000000
atom      7.6402143251    19.0887233810     3.8202881096   Al  0.0 0.0      -0.0000001388    -0.0000000822     0.0000002318
atom     11.4564324481    15.2740400514     3.8187007459   Al  0.0 0.0      -0.0000003321     0.0000000000    -0.0000010719
atom     11.4579678156    19.0901122872    -0.0000000000   Al  0.0 0.0      -0.0000002854     0.0000002854     0.0000000000
atom      7.6387229896    15.2740400514     7.6387229896   Al  0.0 0.0      -0.0000005512     0.0000000000    -0.0000005512
atom      7.6386566321    19.0902687902    11.4578113126   Al  0.0 0.0      -0.0000001131    -0.0000002110     0.0000002110
atom     11.4562435653    15.2740400514    11.4562435653   Al  0.0 0.0       0.0000000969     0.0000000000     0.0000000969
atom     11.4578113126    19.0902687902     7.6386566321   Al  0.0 0.0       0.0000002110    -0.0000002110    -0.0000001131
atom      7.6371053121    15.2740400514    15.2740400514   Al  0.0 0.0      -0.0000005108     0.0000000000     0.0000000000
atom      7.6386566321    19.0902687902    19.0902687902   Al  0.0 0.0      -0.0000001131    -0.0000002110    -0.0000002110
atom     11.4562435653    15.2740400514    19.0918365375   Al  0.0 0.0       0.0000000969     0.0000000000    -0.0000000969
atom     11.4562435653    19.0918365375    15.2740400514   Al  0.0 0.0       0.0000000969    -0.0000000969     0.0000000000
atom      7.6387229896    15.2740400514    22.9093571132   Al  0.0 0.0      -0.0000005512     0.0000000000     0.0000005512
atom      7.6402143251    19.0887233810    26.7277919932   Al  0.0 0.0      -0.0000001388    -0.0000000822    -0.0000002318
atom     11.4564324481    15.2740400514    26.7293793569   Al  0.0 0.0      -0.0000003321     0.0000000000     0.0000010719
atom     11.4578113126    19.0902687902    22.9094234707   Al  0.0 0.0       0.0000002110    -0.0000002110     0.0000001131
atom      7.6480580191    22.9000220837    -0.0000000000   Al  0.0 0.0       0.0000000371    -0.0000000371     0.0000000000
atom      7.6522175695    26.7216089043     3.8264711985   Al  0.0 0.0       0.0000008145    -0.0000000283     0.0000000283
atom     11.4593567218    22.9078657777     3.8202881096   Al  0.0 0.0       0.0000000822     0.0000001388     0.0000002318
atom     11.4605980335    26.7297840264    -0.0000000000   Al  0.0 0.0      -0.0000004660     0.0000005174     0.0000000000
atom      7.6424106252    22.9056694776     7.6424106252   Al  0.0 0.0       0.0000010394    -0.0000010394     0.0000010394
atom      7.6402143251    26.7277919932    11.4593567218   Al  0.0 0.0      -0.0000001388    -0.0000002318     0.0000000822
atom     11.4578113126    22.9094234707    11.4578113126   Al  0.0 0.0       0.0000002110     0.0000001131     0.0000002110
atom     11.4593567218    26.7277919932     7.6402143251   Al  0.0 0.0       0.0000000822    -0.0000002318    -0.0000001388
atom      7.6387229896    22.9093571132    15.2740400514   Al  0.0 0.0      -0.0000005512     0.0000005512     0.0000000000
atom      7.6402143251    26.7277919932    19.0887233810   Al  0.0 0.0      -0.0000001388    -0.0000002318    -0.0000000822
atom     11.4578113126    22.9094234707    19.0902687902   Al  0.0 0.0       0.0000002110     0.0000001131    -0.0000002110
atom     11.4564324481    26.7293793569    15.2740400514   Al  0.0 0.0      -0.0000003321     0.0000010719     0.0000000000
atom      7.6424106252    22.9056694776    22.9056694776   Al  0.0 0.0       0.0000010394    -0.0000010394    -0.0000010394
atom      7.6522175695    26.7216089043    26.7216089043   Al  0.0 0.0       0.0000008145    -0.0000000283    -0.0000000283
atom     11.4593567218    22.9078657777    26.7277919932   Al  0.0 0.0       0.0000000822     0.0000001388    -0.0000002318
atom     11.4593567218    26.7277919932    22.9078657777   Al  0.0 0.0       0.0000000822    -0.0000002318     0.0000001388
atom     15.2740400514    -0.0000000000    -0.0000000000   Al  0.0 0.0       0.0000000000     0.0000000000     0.0000000000
atom     15.2740400514     3.8196418006     3.8196418006   Al  0.0 0.0       0.0000000000     0.0000002031     0.0000002031
atom     19.0874820693    -0.0000000000     3.8182960764   Al  0.0 0.0       0.0000004660     0.0000000000    -0.0000005174
atom     19.0874820693     3.8182960764    -0.0000000000   Al  0.0 0.0       0.0000004660    -0.0000005174     0.0000000000
atom     15.2740400514    -0.0000000000     7.6370066337   Al  0.0 0.0       0.0000000000     0.0000000000     0.0000001895
atom     15.2740400514     3.8187007459    11.4564324481   Al  0.0 0.0       0.0000000000    -0.0000010719    -0.0000003321
atom     19.0901122872    -0.0000000000    11.4579678156   Al  0.0 0.0       0.0000002854     0.0000000000    -0.0000002854
atom     19.0887233810     3.8202881096     7.6402143251   Al  0.0 0.0      -0.0000000822     0.0000002318    -0.0000001388
atom     15.2740400514    -0.0000000000    15.2740400514   Al  0.0 0.0       0.0000000000     0.0000000000     0.0000000000
atom     15.2740400514     3.8187007459    19.0916476546   Al  0.0 0.0       0.0000000000    -0.0000010719     0.0000003321
atom     19.0901122872    -0.0000000000    19.0901122872   Al  0.0 0.0       0.0000002854     0.0000000000     0.0000002854
atom     19.0916476546     3.8187007459    15.2740400514   Al  0.0 0.0       0.0000003321    -0.0000010719     0.0000000000
atom     15.2740400514    -0.0000000000    22.9110734691   Al  0.0 0.0       0.0000000000     0.0000000000    -0.0000001895
atom     15.2740400514     3.8196418006    26.7284383022   Al  0.0 0.0       0.0000000000     0.0000002031    -0.0000002031
atom     19.0874820693    -0.0000000000    26.7297840264   Al  0.0 0.0       0.0000004660     0.0000000000     0.0000005174
atom     19.0887233810     3.8202881096    22.9078657777   Al  0.0 0.0      -0.0000000822     0.0000002318     0.0000001388
atom     15.2740400514     7.6370066337    -0.0000000000   Al  0.0 0.0       0.0000000000     0.0000001895     0.0000000000
atom     15.2740400514    11.4564324481     3.8187007459   Al  0.0 0.0       0.0000000000    -0.0000003321    -0.0000010719
atom     19.0887233810     7.6402143251     3.8202881096   Al  0.0 0.0      -0.0000000822    -0.0000001388     0.0000002318
atom     19.0901122872    11.4579678156    -0.0000000000   Al  0.0 0.0       0.0000002854    -0.0000002854     0.0000000000
atom     15.2740400514     7.6387229896     7.6387229896   Al  0.0 0.0       0.0000000000    -0.0000005512    -0.0000005512
atom     15.2740400514    11.4562435653    11.4562435653   Al  0.0 0.0       0.0000000000     0.0000000969     0.0000000969
atom     19.0902687902     7.6386566321    11.4578113126   Al  0.0 0.0      -0.0000002110    -0.0000001131     0.0000002110
atom     19.0902687902    11.4578113126     7.6386566321   Al  0.0 0.0      -0.0000002110     0.0000002110    -0.0000001131
atom     15.2740400514     7.6371053121    15.2740400514   Al  0.0 0.0       0.0000000000    -0.0000005108     0.0000000000
atom     15.2740400514    11.4562435653    19.0918365375   Al  0.0 0.0       0.0000000000     0.0000000969    -0.0000000969
atom     19.0902687902     7.6386566321    19.0902687902   Al  0.0 0.0      -0.0000002110    -0.0000001131    -0.0000002110
atom     19.0918365375    11.4562435653    15.2740400514   Al  0.0 0.0      -0.0000000969     0.0000000969     0.0000000000
atom     15.2740400514     7.6387229896    22.9093571132   Al  0.0 0.0       0.0000000000    -0.0000005512     0.0000005512
atom     15.2740400514    11.4564324481    26.7293793569   Al  0.0 0.0       0.0000000000    -0.0000003321     0.0000010719
atom     19.0887233810     7.6402143251    26.7277919932   Al  0.0 0.0      -0.0000000822    -0.0000001388    -0.0000002318
atom     19.0902687902    11.4578113126    22.9094234707   Al  0.0 0.0      -0.0000002110     0.0000002110     0.0000001131
atom     15.2740400514    15.2740400514    -0.0000000000   Al  0.0 0.0       0.0000000000     0.0000000000     0.0000000000
atom     15.2740400514    19.0916476546     3.8187007459   Al  0.0 0.0       0.0000000000     0.0000003321    -0.0000010719
atom     19.0916476546    15.2740400514     3.8187007459   Al  0.0 0.0       0.0000003321     0.0000000000    -0.0000010719
atom     19.0901122872    19.0901122872    -0.0000000000   Al  0.0 0.0       0.0000002854     0.0000002854     0.0000000000
atom     15.2740400514    15.2740400514     7.6371053121   Al  0.0 0.0       0.0000000000     0.0000000000    -0.0000005108
atom     15.2740400514    19.0918365375    11.4562435653   Al  0.0 0.0       0.0000000000    -0.0000000969     0.0000000969
atom     19.0918365375    15.2740400514    11.4562435653   Al  0.0 0.0      -0.0000000969     0.0000000000     0.0000000969
atom     19.0902687902    19.0902687902     7.6386566321   Al  0.0 0.0      -0.0000002110    -0.0000002110    -0.0000001131
atom     15.2740400514    15.2740400514    15.2740400514   Al  0.0 0.0       0.0000000000     0.0000000000     0.0000000000
atom     15.2740400514    19.0918365375    19.0918365375   Al  0.0 0.0       0.0000000000    -0.0000000969    -0.0000000969
atom     19.0918365375    15.2740400514    19.0918365375   Al  0.0 0.0      -0.0000000969     0.0000000000    -0.0000000969
atom     19.0918365375    19.0918365375    15.2740400514   Al  0.0 0.0      -0.0000000969    -0.0000000969     0.0000000000
atom     15.2740400514    15.2740400514    22.9109747907   Al  0.0 0.0       0.0000000000     0.0000000000     0.0000005108
atom     15.2740400514    19.0916476546    26.7293793569   Al  0.0 0.0       0.0000000000     0.0000003321     0.0000010719
atom     19.0916476546    15.2740400514    26.7293793569   Al  0.0 0.0       0.0000003321     0.0000000000     0.0000010719
atom     19.0902687902    19.0902687902    22.9094234707   Al  0.0 0.0      -0.0000002110    -0.0000002110     0.0000001131
atom     15.2740400514    22.9110734691    -0.0000000000   Al  0.0 0.0       0.0000000000    -0.0000001895     0.0000000000
atom     15.2740400514    26.7284383022     3.8196418006   Al  0.0 0.0       0.0000000000    -0.0000002031     0.0000002031
atom     19.0887233810    22.9078657777     3.8202881096   Al  0.0 0.0      -0.0000000822     0.0000001388     0.0000002318
atom     19.0874820693    26.7297840264    -0.0000000000   Al  0.0 0.0       0.0000004660     0.0000005174     0.0000000000
atom     15.2740400514    22.9093571132     7.6387229896   Al  0.0 0.0       0.0000000000     0.0000005512    -0.0000005512
atom     15.2740400514    26.7293793569    11.4564324481   Al  0.0 0.0       0.0000000000     0.0000010719    -0.0000003321
atom     19.0902687902    22.9094234707    11.4578113126   Al  0.0 0.0      -0.0000002110     0.0000001131     0.0000002110
atom     19.0887233810    26.7277919932     7.6402143251   Al  0.0 0.0      -0.0000000822    -0.0000002318    -0.0000001388
atom     15.2740400514    22.9109747907    15.2740400514   Al  0.0 0.0       0.0000000000     0.0000005108     0.0000000000
atom     15.2740400514    26.7293793569    19.0916476546   Al  0.0 0.0       0.0000000000     0.0000010719     0.0000003321
atom     19.0902687902    22.9094234707    19.0902687902   Al  0.0 0.0      -0.0000002110     0.0000001131    -0.0000002110
atom     19.0916476546    26.7293793569    15.2740400514   Al  0.0 0.0       0.0000003321     0.0000010719     0.0000000000
atom     15.2740400514    22.9093571132    22.9093571132   Al  0.0 0.0       0.0000000000     0.0000005512     0.0000005512
atom     15.2740400514    26.7284383022    26.7284383022   Al  0.0 0.0       0.0000000000    -0.0000002031    -0.0000002031
atom     19.0887233810    22.9078657777    26.7277919932   Al  0.0 0.0      -0.0000000822     0.0000001388    -0.0000002318
atom     19.0887233810    26.7277919932    22.9078657777   Al  0.0 0.0      -0.0000000822    -0.0000002318     0.0000001388
atom     22.9103577975    -0.0000000000    -0.0000000000   Al  0.0 0.0       0.0000002458     0.0000000000     0.0000000000
atom     22.8958625333     3.8264711985     3.8264711985   Al  0.0 0.0      -0.0000008145     0.0000000283     0.0000000283
atom     26.6858466099    -0.0000000000     3.8622334929   Al  0.0 0.0       0.0000013618     0.0000000000    -0.0000013618
atom     26.6858466099     3.8622334929    -0.0000000000   Al  0.0 0.0       0.0000013618    -0.0000013618     0.0000000000
atom     22.9000220837    -0.0000000000     7.6480580191   Al  0.0 0.0      -0.0000000371     0.0000000000     0.0000000371
atom     22.9078657777     3.8202881096    11.4593567218   Al  0.0 0.0       0.0000001388     0.0000002318     0.0000000822
atom     26.7297840264    -0.0000000000    11.4605980335   Al  0.0 0.0       0.0000005174     0.0000000000    -0.0000004660
atom     26.7216089043     3.8264711985     7.6522175695   Al  0.0 0.0      -0.0000000283     0.0000000283     0.0000008145
atom     22.9110734691    -0.0000000000    15.2740400514   Al  0.0 0.0      -0.0000001895     0.0000000000     0.0000000000
atom     22.9078657777     3.8202881096    19.0887233810   Al  0.0 0.0       0.0000001388     0.0000002318    -0.0000000822
atom     26.7297840264    -0.0000000000    19.0874820693   Al  0.0 0.0       0.0000005174     0.0000000000     0.0000004660
atom     26.7284383022     3.8196418006    15.2740400514   Al  0.0 0.0      -0.0000002031     0.0000002031     0.0000000000
atom     22.9000220837    -0.0000000000    22.9000220837   Al  0.0 0.0      -0.0000000371     0.0000000000    -0.0000000371
atom     22.8958625333     3.8264711985    26.7216089043   Al  0.0 0.0      -0.0000008145     0.0000000283    -0.0000000283
atom     26.6858466099    -0.0000000000    26.6858466099   Al  0.0 0.0       0.0000013618     0.0000000000     0.0000013618
atom     26.7216089043     3.8264711985    22.8958625333   Al  0.0 0.0      -0.0000000283     0.0000000283    -0.0000008145
atom     22.9000220837     7.6480580191    -0.0000000000   Al  0.0 0.0      -0.0000000371     0.0000000371     0.0000000000
atom     22.9078657777    11.4593567218     3.8202881096   Al  0.0 0.0       0.0000001388     0.0000000822     0.0000002318
atom     26.7216089043     7.6522175695     3.8264711985   Al  0.0 0.0      -0.0000000283     0.0000008145     0.0000000283
atom     26.7297840264    11.4605980335    -0.0000000000   Al  0.0 0.0       0.0000005174    -0.0000004660     0.0000000000
atom     22.9056694776     7.6424106252     7.6424106252   Al  0.0 0.0      -0.0000010394     0.0000010394     0.0000010394
atom     22.9094234707    11.4578113126    11.4578113126   Al  0.0 0.0       0.0000001131     0.0000002110     0.0000002110
atom     26.7277919932     7.6402143251    11.4593567218   Al  0.0 0.0      -0.0000002318    -0.0000001388     0.0000000822
atom     26.7277919932    11.4593567218     7.6402143251   Al  0.0 0.0      -0.0000002318     0.0000000822    -0.0000001388
atom     22.9093571132     7.6387229896    15.2740400514   Al  0.0 0.0       0.0000005512    -0.0000005512     0.0000000000
atom     22.9094234707    11.4578113126    19.0902687902   Al  0.0 0.0       0.0000001131     0.0000002110    -0.0000002110
atom     26.7277919932     7.6402143251    19.0887233810   Al  0.0 0.0      -0.0000002318    -0.0000001388    -0.0000000822
atom     26.7293793569    11.4564324481    15.2740400514   Al  0.0 0.0       0.0000010719    -0.0000003321     0.0000000000
atom     22.9056694776     7.6424106252    22.9056694776   Al  0.0 0.0      -0.0000010394     0.0000010394    -0.0000010394
atom     22.9078657777    11.4593567218    26.7277919932   Al  0.0 0.0       0.0000001388     0.0000000822    -0.0000002318
atom     26.7216089043     7.6522175695    26.7216089043   Al  0.0 0.0      -0.0000000283     0.0000008145    -0.0000000283
atom     26.7277919932    11.4593567218    22.9078657777   Al  0.0 0.0      -0.0000002318     0.0000000822     0.0000001388
atom     22.9110734691    15.2740400514    -0.0000000000   Al  0.0 0.0      -0.0000001895     0.0000000000     0.0000000000
atom     22.9078657777    19.0887233810     3.8202881096   Al  0.0 0.0       0.0000001388    -0.0000000822     0.0000002318
atom     26.7284383022    15.2740400514     3.8196418006   Al  0.0 0.0      -0.0000002031     0.0000000000     0.0000002031
atom     26.7297840264    19.0874820693    -0.0000000000   Al  0.0 0.0       0.0000005174     0.0000004660     0.0000000000
atom     22.9093571132    15.2740400514     7.6387229896   Al  0.0 0.0       0.0000005512     0.0000000000    -0.0000005512
atom     22.9094234707    19.0902687902    11.4578113126   Al  0.0 0.0       0.0000001131    -0.0000002110     0.0000002110
atom     26.7293793569    15.2740400514    11.4564324481   Al  0.0 0.0       0.0000010719     0.0000000000    -0.0000003321
atom     26.7277919932    19.0887233810     7.6402143251   Al  0.0 0.0      -0.0000002318    -0.0000000822    -0.0000001388
atom     22.9109747907    15.2740400514    15.2740400514   Al  0.0 0.0       0.0000005108     0.0000000000     0.0000000000
atom     22.9094234707    19.0902687902    19.0902687902   Al  0.0 0.0       0.0000001131    -0.0000002110    -0.0000002110
atom     26.7293793569    15.2740400514    19.0916476546   Al  0.0 0.0       0.0000010719     0.0000000000     0.0000003321
atom     26.7293793569    19.0916476546    15.2740400514   Al  0.0 0.0       0.0000010719     0.0000003321     0.0000000000
atom     22.9093571132    15.2740400514    22.9093571132   Al  0.0 0.0       0.0000005512     0.0000000000     0.0000005512
atom     22.9078657777    19.0887233810    26.7277919932   Al  0.0 0.0       0.0000001388    -0.0000000822    -0.0000002318
atom     26.7284383022    15.2740400514    26.7284383022   Al  0.0 0.0      -0.0000002031     0.0000000000    -0.0000002031
atom     26.7277919932    19.0887233810    22.9078657777   Al  0.0 0.0      -0.0000002318    -0.0000000822     0.0000001388