begin
comment uuid: 2de31ede-4cd9-4681-ab6d-28c194209012 parent_uuid: 46939af9-eee4-4d42-a067-25e919f9bf55 trajectory_step: final_scf
lattice     13.5489774015     0.0000000013     0.0000000000
lattice     -6.7744886995    11.7337586240     0.0000000000
lattice      0.0000000000     0.0000000002    23.2039878050
atom      3.5166588661     7.9456856553     1.9262166116   Mg  0.0 0.0       0.0000001975    -0.0000008341    -0.0000007421
atom     -1.8650063959    10.8064319004     1.9262166271   Mg  0.0 0.0       0.0000006236     0.0000005881    -0.0000007420
atom     -1.6516526923     4.7153999171     1.9262165940   Mg  0.0 0.0      -0.0000008211     0.0000002461    -0.0000007421
atom      2.8259301343     3.1636087254     5.8009970486   Mg  0.0 0.0      -0.0000004035     0.0000012549     0.0000000000
atom      9.3962467814     0.8655230973     5.8009970486   Mg  0.0 0.0      -0.0000008851    -0.0000009767     0.0000000000
atom      8.1012889824     7.7046270145     5.8009970486   Mg  0.0 0.0       0.0000012883    -0.0000002781     0.0000000000
atom      3.5166588665     7.9456856561     9.6757774853   Mg  0.0 0.0       0.0000001974    -0.0000008342     0.0000007421
atom     -1.8650063967    10.8064319005     9.6757774698   Mg  0.0 0.0       0.0000006237     0.0000005881     0.0000007421
atom     -1.6516526919     4.7153999164     9.6757775029   Mg  0.0 0.0      -0.0000008211     0.0000002462     0.0000007421
atom      3.2578296609     3.7880731513    13.5282105197   Mg  0.0 0.0      -0.0000001973     0.0000008340    -0.0000007422
atom      8.6394949216     0.9273269007    13.5282105338   Mg  0.0 0.0      -0.0000006236    -0.0000005880    -0.0000007421
atom      8.4261412223     7.0183588858    13.5282104960   Mg  0.0 0.0       0.0000008211    -0.0000002462    -0.0000007421
atom      3.9485584038     8.5701500841    17.4029909514   Mg  0.0 0.0       0.0000004034    -0.0000012549    -0.0000000000
atom     -2.6217582577    10.8682357074    17.4029909514   Mg  0.0 0.0       0.0000008851     0.0000009767    -0.0000000000
atom     -1.3268004497     4.0291317853    17.4029909514   Mg  0.0 0.0      -0.0000012885     0.0000002781    -0.0000000000
atom      3.2578296613     3.7880731521    21.2777713835   Mg  0.0 0.0      -0.0000001974     0.0000008339     0.0000007421
atom      8.6394949208     0.9273269008    21.2777713693   Mg  0.0 0.0      -0.0000006235    -0.0000005880     0.0000007421
atom      8.4261412227     7.0183588851    21.2777714070   Mg  0.0 0.0       0.0000008211    -0.0000002461     0.0000007421
atom     -0.0000000665     0.0000000651     2.2563652274   Si  0.0 0.0       0.0000000000     0.0000000000     0.0000012690
atom      6.7744886227     3.9112529519     2.1387600176   Si  0.0 0.0      -0.0000000000     0.0000000001     0.0000002372
atom     -0.0000000738     7.8225058099     5.8009970477   Si  0.0 0.0      -0.0000000001     0.0000000000     0.0000000001
atom     -0.0000000664     0.0000000651     9.3456288780   Si  0.0 0.0       0.0000000000     0.0000000000    -0.0000012701
atom     -0.0000001071     0.0000001109    13.8583591100   Si  0.0 0.0      -0.0000000000     0.0000000001     0.0000012702
atom      6.7744886227     3.9112529520     9.4632340799   Si  0.0 0.0      -0.0000000000     0.0000000001    -0.0000002372
atom     -0.0000000945     7.8225058517    13.7407539218   Si  0.0 0.0       0.0000000000    -0.0000000001     0.0000002372
atom     -0.0000001071     0.0000001109    20.9476227846   Si  0.0 0.0      -0.0000000000     0.0000000001    -0.0000012691
atom      6.7744886044     3.9112529950    17.4029909523   Si  0.0 0.0       0.0000000000    -0.0000000000    -0.0000000001
atom     -0.0000000945     7.8225058517    21.0652279808   Si  0.0 0.0       0.0000000000    -0.0000000001    -0.0000002373
energy -359.75353689
charge 0.0000
end
