begin
comment 255 atoms, species Al255
lattice     30.5480801028     0.0000000000     0.0000000000
lattice      0.0000000000    30.5480801028     0.0000000000
lattice      0.0000000000     0.0000000000    30.5480801028
atom     -0.0078711721    -0.0078711721    -0.0116329881   Al  0.0 0.0       0.0000000745     0.0000000745    -0.0000013467
atom     -0.0040881656     3.8128155888     3.8124005638   Al  0.0 0.0      -0.0000004004     0.0000004265    -0.0000002059
atom      3.8128155888    -0.0040881656     3.8124005638   Al  0.0 0.0       0.0000004265    -0.0000004004    -0.0000002059
atom      3.8123007551     3.8123007551    -0.0062092577   Al  0.0 0.0      -0.0000010021    -0.0000010021    -0.0000010021
atom     -0.0011615158    -0.0011615158     7.6370200257   Al  0.0 0.0      -0.0000006354    -0.0000006354     0.0000000000
atom     -0.0040881656     3.8128155888    11.4616394875   Al  0.0 0.0      -0.0000004004     0.0000004265     0.0000002059
atom      3.8128155888    -0.0040881656    11.4616394875   Al  0.0 0.0       0.0000004265    -0.0000004004     0.0000002059
atom      3.8127986616     3.8127986616     7.6370200257   Al  0.0 0.0       0.0000006085     0.0000006085     0.0000000000
atom     -0.0078711721    -0.0078711721    15.2856730395   Al  0.0 0.0       0.0000000745     0.0000000745     0.0000013467
atom     -0.0078711721     3.8068770247    19.1004212364   Al  0.0 0.0       0.0000000745    -0.0000013467    -0.0000000745
atom      3.8068770247    -0.0078711721    19.1004212364   Al  0.0 0.0      -0.0000013467     0.0000000745    -0.0000000745
atom      3.8123007551     3.8123007551    15.2802493092   Al  0.0 0.0      -0.0000010021    -0.0000010021     0.0000010021
atom     -0.0688770962    -0.0688770962    22.9110600771   Al  0.0 0.0       0.0000007439     0.0000007439     0.0000000000
atom     -0.0078711721     3.8068770247    26.7216989178   Al  0.0 0.0       0.0000000745    -0.0000013467     0.0000000745
atom      3.8068770247    -0.0078711721    26.7216989178   Al  0.0 0.0      -0.0000013467     0.0000000745     0.0000000745
atom      3.7890794252     3.7890794252    22.9110600771   Al  0.0 0.0       0.0000001839     0.0000001839     0.0000000000
atom     -0.0040881656     7.6309105767    -0.0056944239   Al  0.0 0.0      -0.0000004004    -0.0000002059     0.0000004265
atom     -0.0043010440    11.4555300385     3.8145499534   Al  0.0 0.0       0.0000014594    -0.0000000000     0.0000001331
atom      3.8149601462     7.6333292976     3.8148192848   Al  0.0 0.0      -0.0000000872    -0.0000004396    -0.0000004396
atom      3.8127986616    11.4555300385    -0.0057113512   Al  0.0 0.0       0.0000006085    -0.0000000000     0.0000006085
atom     -0.0043010440     7.6330599663     7.6370200257   Al  0.0 0.0       0.0000014594     0.0000001331     0.0000000000
atom     -0.0043010440    11.4555300385    11.4594900980   Al  0.0 0.0       0.0000014594    -0.0000000000    -0.0000001331
atom      3.8149601462     7.6333292976    11.4592207666   Al  0.0 0.0      -0.0000000872    -0.0000004396     0.0000004396
atom      3.8160828798    11.4555300385     7.6370200257   Al  0.0 0.0       0.0000010254    -0.0000000000     0.0000000000
atom     -0.0040881656     7.6309105767    15.2797344754   Al  0.0 0.0      -0.0000004004    -0.0000002059    -0.0000004265
atom     -0.0011615158    11.4555300385    19.0937115801   Al  0.0 0.0      -0.0000006354    -0.0000000000     0.0000006354
atom      3.8128155888     7.6309105767    19.0966382298   Al  0.0 0.0       0.0000004265    -0.0000002059     0.0000004004
atom      3.8127986616    11.4555300385    15.2797514026   Al  0.0 0.0       0.0000006085    -0.0000000000    -0.0000006085
atom     -0.0042770954     7.6348405057    22.9110600771   Al  0.0 0.0       0.0000003443     0.0000002119     0.0000000000
atom     -0.0011615158    11.4555300385    26.7284085741   Al  0.0 0.0      -0.0000006354    -0.0000000000    -0.0000006354
atom      3.8128155888     7.6309105767    26.7254819244   Al  0.0 0.0       0.0000004265    -0.0000002059    -0.0000004004
atom      3.8134429885    11.4555300385    22.9110600771   Al  0.0 0.0      -0.0000005918    -0.0000000000     0.0000000000
atom     -0.0040881656    15.2801495004    -0.0056944239   Al  0.0 0.0      -0.0000004004     0.0000002059     0.0000004265
atom     -0.0040881656    19.0982444882     3.8124005638   Al  0.0 0.0      -0.0000004004    -0.0000004265    -0.0000002059
atom      3.8149601462    15.2777307794     3.8148192848   Al  0.0 0.0      -0.0000000872     0.0000004396    -0.0000004396
atom      3.8123007551    19.0987593220    -0.0062092577   Al  0.0 0.0      -0.0000010021     0.0000010021    -0.0000010021
atom     -0.0043010440    15.2780001108     7.6370200257   Al  0.0 0.0       0.0000014594    -0.0000001331     0.0000000000
atom     -0.0040881656    19.0982444882    11.4616394875   Al  0.0 0.0      -0.0000004004    -0.0000004265     0.0000002059
atom      3.8149601462    15.2777307794    11.4592207666   Al  0.0 0.0      -0.0000000872     0.0000004396     0.0000004396
atom      3.8127986616    19.0982614155     7.6370200257   Al  0.0 0.0       0.0000006085    -0.0000006085     0.0000000000
atom     -0.0040881656    15.2801495004    15.2797344754   Al  0.0 0.0      -0.0000004004     0.0000002059    -0.0000004265
atom     -0.0078711721    19.1041830523    19.1004212364   Al  0.0 0.0       0.0000000745     0.0000013467    -0.0000000745
atom      3.8128155888    15.2801495004    19.0966382298   Al  0.0 0.0       0.0000004265     0.0000002059     0.0000004004
atom      3.8123007551    19.0987593220    15.2802493092   Al  0.0 0.0      -0.0000010021     0.0000010021     0.0000010021
atom     -0.0042770954    15.2762195714    22.9110600771   Al  0.0 0.0       0.0000003443    -0.0000002119     0.0000000000
atom     -0.0078711721    19.1041830523    26.7216989178   Al  0.0 0.0       0.0000000745     0.0000013467     0.0000000745
atom      3.8128155888    15.2801495004    26.7254819244   Al  0.0 0.0       0.0000004265     0.0000002059    -0.0000004004
atom      3.7890794252    19.1219806519    22.9110600771   Al  0.0 0.0       0.0000001839    -0.0000001839     0.0000000000
atom     -0.0078711721    22.9189312492    -0.0116329881   Al  0.0 0.0       0.0000000745    -0.0000000745    -0.0000013467
atom     -0.0042770954    26.7295700899     3.8163304928   Al  0.0 0.0       0.0000003443    -0.0000000000     0.0000002119
atom      3.8128155888    22.9151482427     3.8124005638   Al  0.0 0.0       0.0000004265     0.0000004004    -0.0000002059
atom      3.7890794252    26.7295700899    -0.0294305876   Al  0.0 0.0       0.0000001839    -0.0000000000     0.0000001839
atom     -0.0011615158    22.9122215930     7.6370200257   Al  0.0 0.0      -0.0000006354     0.0000006354     0.0000000000
atom     -0.0042770954    26.7295700899    11.4577095585   Al  0.0 0.0       0.0000003443    -0.0000000000    -0.0000002119
atom      3.8128155888    22.9151482427    11.4616394875   Al  0.0 0.0       0.0000004265     0.0000004004     0.0000002059
atom      3.8134429885    26.7295700899     7.6370200257   Al  0.0 0.0      -0.0000005918    -0.0000000000     0.0000000000
atom     -0.0078711721    22.9189312492    15.2856730395   Al  0.0 0.0       0.0000000745    -0.0000000745     0.0000013467
atom     -0.0688770962    26.7295700899    19.1614271605   Al  0.0 0.0       0.0000007439    -0.0000000000    -0.0000007439
atom      3.8068770247    22.9189312492    19.1004212364   Al  0.0 0.0      -0.0000013467    -0.0000000745    -0.0000000745
atom      3.7890794252    26.7295700899    15.3034706390   Al  0.0 0.0       0.0000001839    -0.0000000000    -0.0000001839
atom     -0.0688770962    22.9799371733    22.9110600771   Al  0.0 0.0       0.0000007439    -0.0000007439     0.0000000000
atom     -0.0688770962    26.7295700899    26.6606929937   Al  0.0 0.0       0.0000007439    -0.0000000000     0.0000007439
atom      3.8068770247    22.9189312492    26.7216989178   Al  0.0 0.0      -0.0000013467    -0.0000000745     0.0000000745
atom      3.8049480537    26.7295700899    22.9110600771   Al  0.0 0.0      -0.0000011616    -0.0000000000     0.0000000000
atom      7.6309105767    -0.0040881656    -0.0056944239   Al  0.0 0.0      -0.0000002059    -0.0000004004     0.0000004265
atom      7.6333292976     3.8149601462     3.8148192848   Al  0.0 0.0      -0.0000004396    -0.0000000872    -0.0000004396
atom     11.4555300385    -0.0043010440     3.8145499534   Al  0.0 0.0      -0.0000000000     0.0000014594     0.0000001331
atom     11.4555300385     3.8127986616    -0.0057113512   Al  0.0 0.0      -0.0000000000     0.0000006085     0.0000006085
atom      7.6330599663    -0.0043010440     7.6370200257   Al  0.0 0.0       0.0000001331     0.0000014594     0.0000000000
atom      7.6333292976     3.8149601462    11.4592207666   Al  0.0 0.0      -0.0000004396    -0.0000000872     0.0000004396
atom     11.4555300385    -0.0043010440    11.4594900980   Al  0.0 0.0      -0.0000000000     0.0000014594    -0.0000001331
atom     11.4555300385     3.8160828798     7.6370200257   Al  0.0 0.0      -0.0000000000     0.0000010254     0.0000000000
atom      7.6309105767    -0.0040881656    15.2797344754   Al  0.0 0.0      -0.0000002059    -0.0000004004    -0.0000004265
atom      7.6309105767     3.8128155888    19.0966382298   Al  0.0 0.0      -0.0000002059     0.0000004265     0.0000004004
atom     11.4555300385    -0.0011615158    19.0937115801   Al  0.0 0.0      -0.0000000000    -0.0000006354     0.0000006354
atom     11.4555300385     3.8127986616    15.2797514026   Al  0.0 0.0      -0.0000000000     0.0000006085    -0.0000006085
atom      7.6348405057    -0.0042770954    22.9110600771   Al  0.0 0.0       0.0000002119     0.0000003443     0.0000000000
atom      7.6309105767     3.8128155888    26.7254819244   Al  0.0 0.0      -0.0000002059     0.0000004265    -0.0000004004
atom     11.4555300385    -0.0011615158    26.7284085741   Al  0.0 0.0      -0.0000000000    -0.0000006354    -0.0000006354
atom     11.4555300385     3.8134429885    22.9110600771   Al  0.0 0.0      -0.0000000000    -0.0000005918     0.0000000000
atom      7.6333292976     7.6333292976    -0.0035498666   Al  0.0 0.0      -0.0000004396    -0.0000004396    -0.0000000872
atom      7.6348782407    11.4555300385     3.8163682279   Al  0.0 0.0      -0.0000000618    -0.0000000000    -0.0000000618
atom     11.4555300385     7.6348782407     3.8163682279   Al  0.0 0.0      -0.0000000000    -0.0000000618    -0.0000000618
atom     11.4555300385    11.4555300385    -0.0024271330   Al  0.0 0.0      -0.0000000000    -0.0000000000     0.0000010254
atom      7.6348782407     7.6348782407     7.6370200257   Al  0.0 0.0      -0.0000000618    -0.0000000618     0.0000000000
atom      7.6348782407    11.4555300385    11.4576718235   Al  0.0 0.0      -0.0000000618    -0.0000000000     0.0000000618
atom     11.4555300385     7.6348782407    11.4576718235   Al  0.0 0.0      -0.0000000000    -0.0000000618     0.0000000618
atom     11.4555300385    11.4555300385     7.6370200257   Al  0.0 0.0      -0.0000000000    -0.0000000000     0.0000000000
atom      7.6333292976     7.6333292976    15.2775899180   Al  0.0 0.0      -0.0000004396    -0.0000004396     0.0000000872
atom      7.6330599663    11.4555300385    19.0968511082   Al  0.0 0.0       0.0000001331    -0.0000000000    -0.0000014594
atom     11.4555300385     7.6330599663    19.0968511082   Al  0.0 0.0      -0.0000000000     0.0000001331    -0.0000014594
atom     11.4555300385    11.4555300385    15.2764671845   Al  0.0 0.0      -0.0000000000    -0.0000000000    -0.0000010254
atom      7.6267079864     7.6267079864    22.9110600771   Al  0.0 0.0      -0.0000001302    -0.0000001302     0.0000000000
atom      7.6330599663    11.4555300385    26.7252690460   Al  0.0 0.0       0.0000001331    -0.0000000000     0.0000014594
atom     11.4555300385     7.6330599663    26.7252690460   Al  0.0 0.0      -0.0000000000     0.0000001331     0.0000014594
atom     11.4555300385    11.4555300385    22.9110600771   Al  0.0 0.0      -0.0000000000    -0.0000000000     0.0000000000
atom      7.6333292976    15.2777307794    -0.0035498666   Al  0.0 0.0      -0.0000004396     0.0000004396    -0.0000000872
atom      7.6333292976    19.0960999308     3.8148192848   Al  0.0 0.0      -0.0000004396     0.0000000872    -0.0000004396
atom     11.4555300385    15.2761818363     3.8163682279   Al  0.0 0.0      -0.0000000000     0.0000000618    -0.0000000618
atom     11.4555300385    19.0982614155    -0.0057113512   Al  0.0 0.0      -0.0000000000    -0.0000006085     0.0000006085
atom      7.6348782407    15.2761818363     7.6370200257   Al  0.0 0.0      -0.0000000618     0.0000000618     0.0000000000
atom      7.6333292976    19.0960999308    11.4592207666   Al  0.0 0.0      -0.0000004396     0.0000000872     0.0000004396
atom     11.4555300385    15.2761818363    11.4576718235   Al  0.0 0.0      -0.0000000000     0.0000000618     0.0000000618
atom     11.4555300385    19.0949771973     7.6370200257   Al  0.0 0.0      -0.0000000000    -0.0000010254     0.0000000000
atom      7.6333292976    15.2777307794    15.2775899180   Al  0.0 0.0      -0.0000004396     0.0000004396     0.0000000872
atom      7.6309105767    19.0982444882    19.0966382298   Al  0.0 0.0      -0.0000002059    -0.0000004265     0.0000004004
atom     11.4555300385    15.2780001108    19.0968511082   Al  0.0 0.0      -0.0000000000    -0.0000001331    -0.0000014594
atom     11.4555300385    19.0982614155    15.2797514026   Al  0.0 0.0      -0.0000000000    -0.0000006085    -0.0000006085
atom      7.6267079864    15.2843520907    22.9110600771   Al  0.0 0.0      -0.0000001302     0.0000001302     0.0000000000
atom      7.6309105767    19.0982444882    26.7254819244   Al  0.0 0.0      -0.0000002059    -0.0000004265    -0.0000004004
atom     11.4555300385    15.2780001108    26.7252690460   Al  0.0 0.0      -0.0000000000    -0.0000001331     0.0000014594
atom     11.4555300385    19.0976170886    22.9110600771   Al  0.0 0.0      -0.0000000000     0.0000005918     0.0000000000
atom      7.6309105767    22.9151482427    -0.0056944239   Al  0.0 0.0      -0.0000002059     0.0000004004     0.0000004265
atom      7.6267079864    26.7295700899     3.8081979735   Al  0.0 0.0      -0.0000001302    -0.0000000000    -0.0000001302
atom     11.4555300385    22.9153611211     3.8145499534   Al  0.0 0.0      -0.0000000000    -0.0000014594     0.0000001331
atom     11.4555300385    26.7295700899    -0.0050670243   Al  0.0 0.0      -0.0000000000    -0.0000000000    -0.0000005918
atom      7.6330599663    22.9153611211     7.6370200257   Al  0.0 0.0       0.0000001331    -0.0000014594     0.0000000000
atom      7.6267079864    26.7295700899    11.4658420778   Al  0.0 0.0      -0.0000001302    -0.0000000000     0.0000001302
atom     11.4555300385    22.9153611211    11.4594900980   Al  0.0 0.0      -0.0000000000    -0.0000014594    -0.0000001331
atom     11.4555300385    26.7295700899     7.6370200257   Al  0.0 0.0      -0.0000000000    -0.0000000000     0.0000000000
atom      7.6309105767    22.9151482427    15.2797344754   Al  0.0 0.0      -0.0000002059     0.0000004004    -0.0000004265
atom      7.6348405057    26.7295700899    19.0968271596   Al  0.0 0.0       0.0000002119    -0.0000000000    -0.0000003443
atom     11.4555300385    22.9122215930    19.0937115801   Al  0.0 0.0      -0.0000000000     0.0000006354     0.0000006354
atom     11.4555300385    26.7295700899    15.2791070757   Al  0.0 0.0      -0.0000000000    -0.0000000000     0.0000005918
atom      7.6348405057    22.9153371725    22.9110600771   Al  0.0 0.0       0.0000002119    -0.0000003443     0.0000000000
atom      7.6348405057    26.7295700899    26.7252929946   Al  0.0 0.0       0.0000002119    -0.0000000000     0.0000003443
atom     11.4555300385    22.9122215930    26.7284085741   Al  0.0 0.0      -0.0000000000     0.0000006354    -0.0000006354
atom     11.4555300385    26.7295700899    22.9110600771   Al  0.0 0.0      -0.0000000000    -0.0000000000     0.0000000000
atom     15.2801495004    -0.0040881656    -0.0056944239   Al  0.0 0.0       0.0000002059    -0.0000004004     0.0000004265
atom     15.2777307794     3.8149601462     3.8148192848   Al  0.0 0.0       0.0000004396    -0.0000000872    -0.0000004396
atom     19.0982444882    -0.0040881656     3.8124005638   Al  0.0 0.0      -0.0000004265    -0.0000004004    -0.0000002059
atom     19.0987593220     3.8123007551    -0.0062092577   Al  0.0 0.0       0.0000010021    -0.0000010021    -0.0000010021
atom     15.2780001108    -0.0043010440     7.6370200257   Al  0.0 0.0      -0.0000001331     0.0000014594     0.0000000000
atom     15.2777307794     3.8149601462    11.4592207666   Al  0.0 0.0       0.0000004396    -0.0000000872     0.0000004396
atom     19.0982444882    -0.0040881656    11.4616394875   Al  0.0 0.0      -0.0000004265    -0.0000004004     0.0000002059
atom     19.0982614155     3.8127986616     7.6370200257   Al  0.0 0.0      -0.0000006085     0.0000006085     0.0000000000
atom     15.2801495004    -0.0040881656    15.2797344754   Al  0.0 0.0       0.0000002059    -0.0000004004    -0.0000004265
atom     15.2801495004     3.8128155888    19.0966382298   Al  0.0 0.0       0.0000002059     0.0000004265     0.0000004004
atom     19.1041830523    -0.0078711721    19.1004212364   Al  0.0 0.0       0.0000013467     0.0000000745    -0.0000000745
atom     19.0987593220     3.8123007551    15.2802493092   Al  0.0 0.0       0.0000010021    -0.0000010021     0.0000010021
atom     15.2762195714    -0.0042770954    22.9110600771   Al  0.0 0.0      -0.0000002119     0.0000003443     0.0000000000
atom     15.2801495004     3.8128155888    26.7254819244   Al  0.0 0.0       0.0000002059     0.0000004265    -0.0000004004
atom     19.1041830523    -0.0078711721    26.7216989178   Al  0.0 0.0       0.0000013467     0.0000000745     0.0000000745
atom     19.1219806519     3.7890794252    22.9110600771   Al  0.0 0.0      -0.0000001839     0.0000001839     0.0000000000
atom     15.2777307794     7.6333292976    -0.0035498666   Al  0.0 0.0       0.0000004396    -0.0000004396    -0.0000000872
atom     15.2761818363    11.4555300385     3.8163682279   Al  0.0 0.0       0.0000000618    -0.0000000000    -0.0000000618
atom     19.0960999308     7.6333292976     3.8148192848   Al  0.0 0.0       0.0000000872    -0.0000004396    -0.0000004396
atom     19.0982614155    11.4555300385    -0.0057113512   Al  0.0 0.0      -0.0000006085    -0.0000000000     0.0000006085
atom     15.2761818363     7.6348782407     7.6370200257   Al  0.0 0.0       0.0000000618    -0.0000000618     0.0000000000
atom     15.2761818363    11.4555300385    11.4576718235   Al  0.0 0.0       0.0000000618    -0.0000000000     0.0000000618
atom     19.0960999308     7.6333292976    11.4592207666   Al  0.0 0.0       0.0000000872    -0.0000004396     0.0000004396
atom     19.0949771973    11.4555300385     7.6370200257   Al  0.0 0.0      -0.0000010254    -0.0000000000     0.0000000000
atom     15.2777307794     7.6333292976    15.2775899180   Al  0.0 0.0       0.0000004396    -0.0000004396     0.0000000872
atom     15.2780001108    11.4555300385    19.0968511082   Al  0.0 0.0      -0.0000001331    -0.0000000000    -0.0000014594
atom     19.0982444882     7.6309105767    19.0966382298   Al  0.0 0.0      -0.0000004265    -0.0000002059     0.0000004004
atom     19.0982614155    11.4555300385    15.2797514026   Al  0.0 0.0      -0.0000006085    -0.0000000000    -0.0000006085
atom     15.2843520907     7.6267079864    22.9110600771   Al  0.0 0.0       0.0000001302    -0.0000001302     0.0000000000
atom     15.2780001108    11.4555300385    26.7252690460   Al  0.0 0.0      -0.0000001331    -0.0000000000     0.0000014594
atom     19.0982444882     7.6309105767    26.7254819244   Al  0.0 0.0      -0.0000004265    -0.0000002059    -0.0000004004
atom     19.0976170886    11.4555300385    22.9110600771   Al  0.0 0.0       0.0000005918    -0.0000000000     0.0000000000
atom     15.2777307794    15.2777307794    -0.0035498666   Al  0.0 0.0       0.0000004396     0.0000004396    -0.0000000872
atom     15.2777307794    19.0960999308     3.8148192848   Al  0.0 0.0       0.0000004396     0.0000000872    -0.0000004396
atom     19.0960999308    15.2777307794     3.8148192848   Al  0.0 0.0       0.0000000872     0.0000004396    -0.0000004396
atom     19.0987593220    19.0987593220    -0.0062092577   Al  0.0 0.0       0.0000010021     0.0000010021    -0.0000010021
atom     15.2761818363    15.2761818363     7.6370200257   Al  0.0 0.0       0.0000000618     0.0000000618     0.0000000000
atom     15.2777307794    19.0960999308    11.4592207666   Al  0.0 0.0       0.0000004396     0.0000000872     0.0000004396
atom     19.0960999308    15.2777307794    11.4592207666   Al  0.0 0.0       0.0000000872     0.0000004396     0.0000004396
atom     19.0982614155    19.0982614155     7.6370200257   Al  0.0 0.0      -0.0000006085    -0.0000006085     0.0000000000
atom     15.2777307794    15.2777307794    15.2775899180   Al  0.0 0.0       0.0000004396     0.0000004396     0.0000000872
atom     15.2801495004    19.0982444882    19.0966382298   Al  0.0 0.0       0.0000002059    -0.0000004265     0.0000004004
atom     19.0982444882    15.2801495004    19.0966382298   Al  0.0 0.0      -0.0000004265     0.0000002059     0.0000004004
atom     19.0987593220    19.0987593220    15.2802493091   Al  0.0 0.0       0.0000010021     0.0000010021     0.0000010021
atom     15.2843520907    15.2843520907    22.9110600771   Al  0.0 0.0       0.0000001302     0.0000001302     0.0000000000
atom     15.2801495004    19.0982444882    26.7254819244   Al  0.0 0.0       0.0000002059    -0.0000004265    -0.0000004004
atom     19.0982444882    15.2801495004    26.7254819244   Al  0.0 0.0      -0.0000004265     0.0000002059    -0.0000004004
atom     19.1219806519    19.1219806519    22.9110600771   Al  0.0 0.0      -0.0000001839    -0.0000001839     0.0000000000
atom     15.2801495004    22.9151482427    -0.0056944239   Al  0.0 0.0       0.0000002059     0.0000004004     0.0000004265
atom     15.2843520907    26.7295700899     3.8081979735   Al  0.0 0.0       0.0000001302    -0.0000000000    -0.0000001302
atom     19.0982444882    22.9151482427     3.8124005638   Al  0.0 0.0      -0.0000004265     0.0000004004    -0.0000002059
atom     19.1219806519    26.7295700899    -0.0294305876   Al  0.0 0.0      -0.0000001839    -0.0000000000     0.0000001839
atom     15.2780001108    22.9153611211     7.6370200257   Al  0.0 0.0      -0.0000001331    -0.0000014594     0.0000000000
atom     15.2843520907    26.7295700899    11.4658420778   Al  0.0 0.0       0.0000001302    -0.0000000000     0.0000001302
atom     19.0982444882    22.9151482427    11.4616394875   Al  0.0 0.0      -0.0000004265     0.0000004004     0.0000002059
atom     19.0976170886    26.7295700899     7.6370200257   Al  0.0 0.0       0.0000005918    -0.0000000000     0.0000000000
atom     15.2801495004    22.9151482427    15.2797344754   Al  0.0 0.0       0.0000002059     0.0000004004    -0.0000004265
atom     15.2762195714    26.7295700899    19.0968271596   Al  0.0 0.0      -0.0000002119    -0.0000000000    -0.0000003443
atom     19.1041830523    22.9189312492    19.1004212364   Al  0.0 0.0       0.0000013467    -0.0000000745    -0.0000000745
atom     19.1219806519    26.7295700899    15.3034706390   Al  0.0 0.0      -0.0000001839    -0.0000000000    -0.0000001839
atom     15.2762195714    22.9153371725    22.9110600771   Al  0.0 0.0      -0.0000002119    -0.0000003443     0.0000000000
atom     15.2762195714    26.7295700899    26.7252929946   Al  0.0 0.0      -0.0000002119    -0.0000000000     0.0000003443
atom     19.1041830523    22.9189312492    26.7216989178   Al  0.0 0.0       0.0000013467    -0.0000000745     0.0000000745
atom     19.1061120233    26.7295700899    22.9110600771   Al  0.0 0.0       0.0000011616    -0.0000000000     0.0000000000
atom     22.9189312492    -0.0078711721    -0.0116329881   Al  0.0 0.0      -0.0000000745     0.0000000745    -0.0000013467
atom     22.9151482427     3.8128155888     3.8124005638   Al  0.0 0.0       0.0000004004     0.0000004265    -0.0000002059
atom     26.7295700899    -0.0042770954     3.8163304928   Al  0.0 0.0      -0.0000000000     0.0000003443     0.0000002119
atom     26.7295700899     3.7890794252    -0.0294305876   Al  0.0 0.0      -0.0000000000     0.0000001839     0.0000001839
atom     22.9122215930    -0.0011615158     7.6370200257   Al  0.0 0.0       0.0000006354    -0.0000006354     0.0000000000
atom     22.9151482427     3.8128155888    11.4616394875   Al  0.0 0.0       0.0000004004     0.0000004265     0.0000002059
atom     26.7295700899    -0.0042770954    11.4577095585   Al  0.0 0.0      -0.0000000000     0.0000003443    -0.0000002119
atom     26.7295700899     3.8134429885     7.6370200257   Al  0.0 0.0      -0.0000000000    -0.0000005918     0.0000000000
atom     22.9189312492    -0.0078711721    15.2856730395   Al  0.0 0.0      -0.0000000745     0.0000000745     0.0000013467
atom     22.9189312492     3.8068770247    19.1004212364   Al  0.0 0.0      -0.0000000745    -0.0000013467    -0.0000000745
atom     26.7295700899    -0.0688770962    19.1614271605   Al  0.0 0.0      -0.0000000000     0.0000007439    -0.0000007439
atom     26.7295700899     3.7890794252    15.3034706390   Al  0.0 0.0      -0.0000000000     0.0000001839    -0.0000001839
atom     22.9799371733    -0.0688770962    22.9110600771   Al  0.0 0.0      -0.0000007439     0.0000007439     0.0000000000
atom     22.9189312492     3.8068770247    26.7216989178   Al  0.0 0.0      -0.0000000745    -0.0000013467     0.0000000745
atom     26.7295700899    -0.0688770962    26.6606929937   Al  0.0 0.0      -0.0000000000     0.0000007439     0.0000007439
atom     26.7295700899     3.8049480537    22.9110600771   Al  0.0 0.0      -0.0000000000    -0.0000011616     0.0000000000
atom     22.9151482427     7.6309105767    -0.0056944239   Al  0.0 0.0       0.0000004004    -0.0000002059     0.0000004265
atom     22.9153611211    11.4555300385     3.8145499534   Al  0.0 0.0      -0.0000014594    -0.0000000000     0.0000001331
atom     26.7295700899     7.6267079864     3.8081979735   Al  0.0 0.0      -0.0000000000    -0.0000001302    -0.0000001302
atom     26.7295700899    11.4555300385    -0.0050670243   Al  0.0 0.0      -0.0000000000    -0.0000000000    -0.0000005918
atom     22.9153611211     7.6330599663     7.6370200257   Al  0.0 0.0      -0.0000014594     0.0000001331     0.0000000000
atom     22.9153611211    11.4555300385    11.4594900980   Al  0.0 0.0      -0.0000014594    -0.0000000000    -0.0000001331
atom     26.7295700899     7.6267079864    11.4658420778   Al  0.0 0.0      -0.0000000000    -0.0000001302     0.0000001302
atom     26.7295700899    11.4555300385     7.6370200257   Al  0.0 0.0      -0.0000000000    -0.0000000000     0.0000000000
atom     22.9151482427     7.6309105767    15.2797344754   Al  0.0 0.0       0.0000004004    -0.0000002059    -0.0000004265
atom     22.9122215930    11.4555300385    19.0937115801   Al  0.0 0.0       0.0000006354    -0.0000000000     0.0000006354
atom     26.7295700899     7.6348405057    19.0968271596   Al  0.0 0.0      -0.0000000000     0.0000002119    -0.0000003443
atom     26.7295700899    11.4555300385    15.2791070757   Al  0.0 0.0      -0.0000000000    -0.0000000000     0.0000005918
atom     22.9153371725     7.6348405057    22.9110600771   Al  0.0 0.0      -0.0000003443     0.0000002119     0.0000000000
atom     22.9122215930    11.4555300385    26.7284085741   Al  0.0 0.0       0.0000006354    -0.0000000000    -0.0000006354
atom     26.7295700899     7.6348405057    26.7252929946   Al  0.0 0.0      -0.0000000000     0.0000002119     0.0000003443
atom     26.7295700899    11.4555300385    22.9110600771   Al  0.0 0.0      -0.0000000000    -0.0000000000     0.0000000000
atom     22.9151482427    15.2801495004    -0.0056944239   Al  0.0 0.0       0.0000004004     0.0000002059     0.0000004265
atom     22.9151482427    19.0982444882     3.8124005638   Al  0.0 0.0       0.0000004004    -0.0000004265    -0.0000002059
atom     26.7295700899    15.2843520907     3.8081979735   Al  0.0 0.0      -0.0000000000     0.0000001302    -0.0000001302
atom     26.7295700899    19.1219806519    -0.0294305876   Al  0.0 0.0      -0.0000000000    -0.0000001839     0.0000001839
atom     22.9153611211    15.2780001108     7.6370200257   Al  0.0 0.0      -0.0000014594    -0.0000001331     0.0000000000
atom     22.9151482427    19.0982444882    11.4616394875   Al  0.0 0.0       0.0000004004    -0.0000004265     0.0000002059
atom     26.7295700899    15.2843520907    11.4658420778   Al  0.0 0.0      -0.0000000000     0.0000001302     0.0000001302
atom     26.7295700899    19.0976170886     7.6370200257   Al  0.0 0.0      -0.0000000000     0.0000005918     0.0000000000
atom     22.9151482427    15.2801495004    15.2797344754   Al  0.0 0.0       0.0000004004     0.0000002059    -0.0000004265
atom     22.9189312492    19.1041830523    19.1004212364   Al  0.0 0.0      -0.0000000745     0.0000013467    -0.0000000745
atom     26.7295700899    15.2762195714    19.0968271596   Al  0.0 0.0      -0.0000000000    -0.0000002119    -0.0000003443
atom     26.7295700899    19.1219806519    15.3034706390   Al  0.0 0.0      -0.0000000000    -0.0000001839    -0.0000001839
atom     22.9153371725    15.2762195714    22.9110600771   Al  0.0 0.0      -0.0000003443    -0.0000002119     0.0000000000
atom     22.9189312492    19.1041830523    26.7216989178   Al  0.0 0.0      -0.0000000745     0.0000013467     0.0000000745
atom     26.7295700899    15.2762195714    26.7252929946   Al  0.0 0.0      -0.0000000000    -0.0000002119     0.0000003443
atom     26.7295700899    19.1061120233    22.9110600771   Al  0.0 0.0      -0.0000000000     0.0000011616     0.0000000000