begin
comment uuid: 2de31ede-4cd9-4681-ab6d-28c194209012 parent_uuid: 46939af9-eee4-4d42-a067-25e919f9bf55 trajectory_step: final_scf
lattice     13.5489774015     0.0000000013     0.0000000000
lattice     -6.7744886995    11.7337586240     0.0000000000
lattice      0.0000000000     0.0000000002    23.2039878050
atom      3.3747526280     8.3514921102     0.3847331371   Mg  0.0 0.0      -0.0000297451     0.0000646076    -0.0003692610
atom     -2.1066424377    11.0278518173     0.2840918928   Mg  0.0 0.0       0.0002543008     0.0000824474     0.0004327529
atom     -1.6523722669     4.9733858520     0.3154612257   Mg  0.0 0.0       0.0000857184    -0.0003406992     0.0002678992
atom      2.9534340061     3.8093345384     4.3705007468   Mg  0.0 0.0      -0.0000135055     0.0002335144    -0.0000260268
atom      8.8134820337     1.1983655844     4.3511175096   Mg  0.0 0.0      -0.0000871910     0.0001020835     0.0002363237
atom      8.1544717338     7.5850381345     4.3649280590   Mg  0.0 0.0       0.0000822920     0.0001347829    -0.0001572776
atom      3.3528197252     8.3781309970     8.4363464790   Mg  0.0 0.0       0.0004608054    -0.0000311018    -0.0005550338
atom     -2.1036969459    11.0599630931     8.4142515404   Mg  0.0 0.0      -0.0002788489    -0.0002152998    -0.0001550472
atom     -1.6516332240     4.9433619929     8.4206680322   Mg  0.0 0.0      -0.0000082819     0.0000086483    -0.0003416115
atom      3.1096260253     4.2252568374    12.1783340178   Mg  0.0 0.0       0.0001101383     0.0001510108    -0.0000916509
atom      8.4447844783     1.1553362336    12.1464528713   Mg  0.0 0.0       0.0000412018    -0.0001834935     0.0001988211
atom      8.4555491311     7.3130873705    12.1573651947   Mg  0.0 0.0       0.0000171025     0.0000783628    -0.0001554148
atom      4.5031427573     9.1738541660    15.9493142217   Mg  0.0 0.0      -0.0002737242    -0.0001079529     0.0002343468
atom     -3.2325751445    11.6094185724    15.9775734230   Mg  0.0 0.0      -0.0006685213    -0.0000356510    -0.0000748876
atom     -1.5339638682     3.6894149013    15.9588028666   Mg  0.0 0.0       0.0003679520    -0.0003187502     0.0002057625
atom      3.1249633905     4.2633705961    19.7509603067   Mg  0.0 0.0      -0.0002501747    -0.0002861713     0.0003187904
atom      8.4716161703     1.1374375899    19.7901680824   Mg  0.0 0.0      -0.0000370764     0.0000236651    -0.0001216814
atom      8.4418789233     7.3126714817    19.7881051785   Mg  0.0 0.0       0.0000768989     0.0000606610    -0.0002065247
atom     -0.1393928738     0.2967858473     1.6912625098   Si  0.0 0.0       0.0002709019    -0.0000658532     0.0005077282
atom      6.6514458018     4.1969160640     0.5042314645   Si  0.0 0.0      -0.0000332848     0.0004563588     0.0000735152
atom     -0.1489173684     8.1143956613     4.3877983813   Si  0.0 0.0       0.0003983956     0.0002305289    -0.0004612963
atom     -0.1411852180     0.2816981946     6.9778279748   Si  0.0 0.0       0.0001733427     0.0002108346     0.0000492924
atom     -0.1042003742     0.3166063529    11.6490098068   Si  0.0 0.0       0.0000601903     0.0001256004     0.0001496846
atom      6.6560434981     4.2268772211     8.2218204997   Si  0.0 0.0      -0.0005128578    -0.0001367414     0.0001365738
atom     -0.0937181659     8.1486294438    13.4649589933   Si  0.0 0.0       0.0000691703    -0.0001399702     0.0004063012
atom     -0.0773796465     0.3382076779    20.2324156027   Si  0.0 0.0      -0.0001800302    -0.0001661275     0.0000694935
atom      6.6832078984     4.2380707203    15.9687337912   Si  0.0 0.0       0.0001615173     0.0000083555    -0.0000047075
atom     -0.0940083404     8.1486226793    18.4757036471   Si  0.0 0.0      -0.0002566862     0.0000563497    -0.0005668641
energy -359.741039745
charge 0.0000
end
