begin
comment 256 atoms, species Al255Si
lattice     30.5480801028     0.0000000000     0.0000000000
lattice      0.0000000000    30.5480801028     0.0000000000
lattice      0.0000000000     0.0000000000    30.5480801028
atom     -0.0000000000    -0.0000000000    -0.0000000000   Si  0.0 0.0       0.0000000000     0.0000000000     0.0000000000
atom     -0.0000000000     3.7983250076     3.7983250076   Al  0.0 0.0       0.0000000000    -0.0000000338    -0.0000000338
atom      3.7983250076    -0.0000000000     3.7983250076   Al  0.0 0.0      -0.0000000338     0.0000000000    -0.0000000338
atom      3.7983250076     3.7983250076    -0.0000000000   Al  0.0 0.0      -0.0000000338    -0.0000000338     0.0000000000
atom     -0.0000000000    -0.0000000000     7.6267558745   Al  0.0 0.0       0.0000000000     0.0000000000    -0.0000004469
atom     -0.0000000000     3.8173481321    11.4522962022   Al  0.0 0.0       0.0000000000    -0.0000002389    -0.0000010792
atom      3.8173481321    -0.0000000000    11.4522962022   Al  0.0 0.0      -0.0000002389     0.0000000000    -0.0000010792
atom      3.8167124782     3.8167124782     7.6315732718   Al  0.0 0.0      -0.0000002638    -0.0000002638    -0.0000005097
atom     -0.0000000000    -0.0000000000    15.2740400514   Al  0.0 0.0       0.0000000000     0.0000000000     0.0000000000
atom     -0.0000000000     3.8173481321    19.0957839006   Al  0.0 0.0       0.0000000000    -0.0000002389     0.0000010792
atom      3.8173481321    -0.0000000000    19.0957839006   Al  0.0 0.0      -0.0000002389     0.0000000000     0.0000010792
atom      3.8184507844     3.8184507844    15.2740400514   Al  0.0 0.0       0.0000000875     0.0000000875     0.0000000000
atom     -0.0000000000    -0.0000000000    22.9213242283   Al  0.0 0.0       0.0000000000     0.0000000000     0.0000004469
atom     -0.0000000000     3.7983250076    26.7497550951   Al  0.0 0.0       0.0000000000    -0.0000000338     0.0000000338
atom      3.7983250076    -0.0000000000    26.7497550951   Al  0.0 0.0      -0.0000000338     0.0000000000     0.0000000338
atom      3.8167124782     3.8167124782    22.9165068309   Al  0.0 0.0      -0.0000002638    -0.0000002638     0.0000005097
atom     -0.0000000000     7.6267558745    -0.0000000000   Al  0.0 0.0       0.0000000000    -0.0000004469     0.0000000000
atom     -0.0000000000    11.4522962022     3.8173481321   Al  0.0 0.0       0.0000000000    -0.0000010792    -0.0000002389
atom      3.8167124782     7.6315732718     3.8167124782   Al  0.0 0.0      -0.0000002638    -0.0000005097    -0.0000002638
atom      3.8173481321    11.4522962022    -0.0000000000   Al  0.0 0.0      -0.0000002389    -0.0000010792     0.0000000000
atom     -0.0000000000     7.6300689551     7.6300689551   Al  0.0 0.0       0.0000000000    -0.0000003545    -0.0000003545
atom     -0.0000000000    11.4520887101    11.4520887101   Al  0.0 0.0       0.0000000000     0.0000008772     0.0000008772
atom      3.8181934334     7.6358918077    11.4532822233   Al  0.0 0.0      -0.0000000796     0.0000003351     0.0000005458
atom      3.8181934334    11.4532822233     7.6358918077   Al  0.0 0.0      -0.0000000796     0.0000005458     0.0000003351
atom     -0.0000000000     7.6366332458    15.2740400514   Al  0.0 0.0       0.0000000000     0.0000000874     0.0000000000
atom     -0.0000000000    11.4520887101    19.0959913926   Al  0.0 0.0       0.0000000000     0.0000008772    -0.0000008772
atom      3.8181934334     7.6358918077    19.0947978795   Al  0.0 0.0      -0.0000000796     0.0000003351    -0.0000005458
atom      3.8177987689    11.4555874174    15.2740400514   Al  0.0 0.0      -0.0000007604     0.0000001100     0.0000000000
atom     -0.0000000000     7.6300689551    22.9180111477   Al  0.0 0.0       0.0000000000    -0.0000003545     0.0000003545
atom     -0.0000000000    11.4522962022    26.7307319707   Al  0.0 0.0       0.0000000000    -0.0000010792     0.0000002389
atom      3.8167124782     7.6315732718    26.7313676245   Al  0.0 0.0      -0.0000002638    -0.0000005097     0.0000002638
atom      3.8181934334    11.4532822233    22.9121882951   Al  0.0 0.0      -0.0000000796     0.0000005458    -0.0000003351
atom     -0.0000000000    15.2740400514    -0.0000000000   Al  0.0 0.0       0.0000000000     0.0000000000     0.0000000000
atom     -0.0000000000    19.0957839006     3.8173481321   Al  0.0 0.0       0.0000000000     0.0000010792    -0.0000002389
atom      3.8184507844    15.2740400514     3.8184507844   Al  0.0 0.0       0.0000000875     0.0000000000     0.0000000875
atom      3.8173481321    19.0957839006    -0.0000000000   Al  0.0 0.0      -0.0000002389     0.0000010792     0.0000000000
atom     -0.0000000000    15.2740400514     7.6366332458   Al  0.0 0.0       0.0000000000     0.0000000000     0.0000000874
atom     -0.0000000000    19.0959913926    11.4520887101   Al  0.0 0.0       0.0000000000    -0.0000008772     0.0000008772
atom      3.8177987689    15.2740400514    11.4555874174   Al  0.0 0.0      -0.0000007604     0.0000000000     0.0000001100
atom      3.8181934334    19.0947978795     7.6358918077   Al  0.0 0.0      -0.0000000796    -0.0000005458     0.0000003351
atom     -0.0000000000    15.2740400514    15.2740400514   Al  0.0 0.0       0.0000000000     0.0000000000     0.0000000000
atom     -0.0000000000    19.0959913926    19.0959913926   Al  0.0 0.0       0.0000000000    -0.0000008772    -0.0000008772
atom      3.8177987689    15.2740400514    19.0924926853   Al  0.0 0.0      -0.0000007604     0.0000000000    -0.0000001100
atom      3.8177987689    19.0924926853    15.2740400514   Al  0.0 0.0      -0.0000007604    -0.0000001100     0.0000000000
atom     -0.0000000000    15.2740400514    22.9114468570   Al  0.0 0.0       0.0000000000     0.0000000000    -0.0000000874
atom     -0.0000000000    19.0957839006    26.7307319707   Al  0.0 0.0       0.0000000000     0.0000010792     0.0000002389
atom      3.8184507844    15.2740400514    26.7296293183   Al  0.0 0.0       0.0000000875     0.0000000000    -0.0000000875
atom      3.8181934334    19.0947978795    22.9121882951   Al  0.0 0.0      -0.0000000796    -0.0000005458    -0.0000003351
atom     -0.0000000000    22.9213242283    -0.0000000000   Al  0.0 0.0       0.0000000000     0.0000004469     0.0000000000
atom     -0.0000000000    26.7497550951     3.7983250076   Al  0.0 0.0       0.0000000000     0.0000000338    -0.0000000338
atom      3.8167124782    22.9165068309     3.8167124782   Al  0.0 0.0      -0.0000002638     0.0000005097    -0.0000002638
atom      3.7983250076    26.7497550951    -0.0000000000   Al  0.0 0.0      -0.0000000338     0.0000000338     0.0000000000
atom     -0.0000000000    22.9180111477     7.6300689551   Al  0.0 0.0       0.0000000000     0.0000003545    -0.0000003545
atom     -0.0000000000    26.7307319707    11.4522962022   Al  0.0 0.0       0.0000000000     0.0000002389    -0.0000010792
atom      3.8181934334    22.9121882951    11.4532822233   Al  0.0 0.0      -0.0000000796    -0.0000003351     0.0000005458
atom      3.8167124782    26.7313676245     7.6315732718   Al  0.0 0.0      -0.0000002638     0.0000002638    -0.0000005097
atom     -0.0000000000    22.9114468570    15.2740400514   Al  0.0 0.0       0.0000000000    -0.0000000874     0.0000000000
atom     -0.0000000000    26.7307319707    19.0957839006   Al  0.0 0.0       0.0000000000     0.0000002389     0.0000010792
atom      3.8181934334    22.9121882951    19.0947978795   Al  0.0 0.0      -0.0000000796    -0.0000003351    -0.0000005458
atom      3.8184507844    26.7296293183    15.2740400514   Al  0.0 0.0       0.0000000875    -0.0000000875     0.0000000000
atom     -0.0000000000    22.9180111477    22.9180111477   Al  0.0 0.0       0.0000000000     0.0000003545     0.0000003545
atom     -0.0000000000    26.7497550951    26.7497550951   Al  0.0 0.0       0.0000000000     0.0000000338     0.0000000338
atom      3.8167124782    22.9165068309    26.7313676245   Al  0.0 0.0      -0.0000002638     0.0000005097     0.0000002638
atom      3.8167124782    26.7313676245    22.9165068309   Al  0.0 0.0      -0.0000002638     0.0000002638     0.0000005097
atom      7.6267558745    -0.0000000000    -0.0000000000   Al  0.0 0.0      -0.0000004469     0.0000000000     0.0000000000
atom      7.6315732718     3.8167124782     3.8167124782   Al  0.0 0.0      -0.0000005097    -0.0000002638    -0.0000002638
atom     11.4522962022    -0.0000000000     3.8173481321   Al  0.0 0.0      -0.0000010792     0.0000000000    -0.0000002389
atom     11.4522962022     3.8173481321    -0.0000000000   Al  0.0 0.0      -0.0000010792    -0.0000002389     0.0000000000
atom      7.6300689551    -0.0000000000     7.6300689551   Al  0.0 0.0      -0.0000003545     0.0000000000    -0.0000003545
atom      7.6358918077     3.8181934334    11.4532822233   Al  0.0 0.0       0.0000003351    -0.0000000796     0.0000005458
atom     11.4520887101    -0.0000000000    11.4520887101   Al  0.0 0.0       0.0000008772     0.0000000000     0.0000008772
atom     11.4532822233     3.8181934334     7.6358918077   Al  0.0 0.0       0.0000005458    -0.0000000796     0.0000003351
atom      7.6366332458    -0.0000000000    15.2740400514   Al  0.0 0.0       0.0000000874     0.0000000000     0.0000000000
atom      7.6358918077     3.8181934334    19.0947978795   Al  0.0 0.0       0.0000003351    -0.0000000796    -0.0000005458
atom     11.4520887101    -0.0000000000    19.0959913926   Al  0.0 0.0       0.0000008772     0.0000000000    -0.0000008772
atom     11.4555874174     3.8177987689    15.2740400514   Al  0.0 0.0       0.0000001100    -0.0000007604     0.0000000000
atom      7.6300689551    -0.0000000000    22.9180111477   Al  0.0 0.0      -0.0000003545     0.0000000000     0.0000003545
atom      7.6315732718     3.8167124782    26.7313676245   Al  0.0 0.0      -0.0000005097    -0.0000002638     0.0000002638
atom     11.4522962022    -0.0000000000    26.7307319707   Al  0.0 0.0      -0.0000010792     0.0000000000     0.0000002389
atom     11.4532822233     3.8181934334    22.9121882951   Al  0.0 0.0       0.0000005458    -0.0000000796    -0.0000003351
atom      7.6300689551     7.6300689551    -0.0000000000   Al  0.0 0.0      -0.0000003545    -0.0000003545     0.0000000000
atom      7.6358918077    11.4532822233     3.8181934334   Al  0.0 0.0       0.0000003351     0.0000005458    -0.0000000796
atom     11.4532822233     7.6358918077     3.8181934334   Al  0.0 0.0       0.0000005458     0.0000003351    -0.0000000796
atom     11.4520887101    11.4520887101    -0.0000000000   Al  0.0 0.0       0.0000008772     0.0000008772     0.0000000000
atom      7.6377747302     7.6377747302     7.6377747302   Al  0.0 0.0       0.0000001205     0.0000001205     0.0000001205
atom      7.6376127127    11.4567941080    11.4567941080   Al  0.0 0.0      -0.0000004314    -0.0000001774    -0.0000001774
atom     11.4567941080     7.6376127127    11.4567941080   Al  0.0 0.0      -0.0000001774    -0.0000004314    -0.0000001774
atom     11.4567941080    11.4567941080     7.6376127127   Al  0.0 0.0      -0.0000001774    -0.0000001774    -0.0000004314
atom      7.6379233360     7.6379233360    15.2740400514   Al  0.0 0.0       0.0000000170     0.0000000170     0.0000000000
atom      7.6376127127    11.4567941080    19.0912859947   Al  0.0 0.0      -0.0000004314    -0.0000001774     0.0000001774
atom     11.4567941080     7.6376127127    19.0912859947   Al  0.0 0.0      -0.0000001774    -0.0000004314     0.0000001774
atom     11.4564677894    11.4564677894    15.2740400514   Al  0.0 0.0       0.0000002312     0.0000002312     0.0000000000
atom      7.6377747302     7.6377747302    22.9103053726   Al  0.0 0.0       0.0000001205     0.0000001205    -0.0000001205
atom      7.6358918077    11.4532822233    26.7298866694   Al  0.0 0.0       0.0000003351     0.0000005458     0.0000000796
atom     11.4532822233     7.6358918077    26.7298866694   Al  0.0 0.0       0.0000005458     0.0000003351     0.0000000796
atom     11.4567941080    11.4567941080    22.9104673900   Al  0.0 0.0      -0.0000001774    -0.0000001774     0.0000004314
atom      7.6366332458    15.2740400514    -0.0000000000   Al  0.0 0.0       0.0000000874     0.0000000000     0.0000000000
atom      7.6358918077    19.0947978795     3.8181934334   Al  0.0 0.0       0.0000003351    -0.0000005458    -0.0000000796
atom     11.4555874174    15.2740400514     3.8177987689   Al  0.0 0.0       0.0000001100     0.0000000000    -0.0000007604
atom     11.4520887101    19.0959913926    -0.0000000000   Al  0.0 0.0       0.0000008772    -0.0000008772     0.0000000000
atom      7.6379233360    15.2740400514     7.6379233360   Al  0.0 0.0       0.0000000170     0.0000000000     0.0000000170
atom      7.6376127127    19.0912859947    11.4567941080   Al  0.0 0.0      -0.0000004314     0.0000001774    -0.0000001774
atom     11.4564677894    15.2740400514    11.4564677894   Al  0.0 0.0       0.0000002312     0.0000000000     0.0000002312
atom     11.4567941080    19.0912859947     7.6376127127   Al  0.0 0.0      -0.0000001774     0.0000001774    -0.0000004314
atom      7.6374497298    15.2740400514    15.2740400514   Al  0.0 0.0      -0.0000006946     0.0000000000     0.0000000000
atom      7.6376127127    19.0912859947    19.0912859947   Al  0.0 0.0      -0.0000004314     0.0000001774     0.0000001774
atom     11.4564677894    15.2740400514    19.0916123134   Al  0.0 0.0       0.0000002312     0.0000000000    -0.0000002312
atom     11.4564677894    19.0916123134    15.2740400514   Al  0.0 0.0       0.0000002312    -0.0000002312     0.0000000000
atom      7.6379233360    15.2740400514    22.9101567668   Al  0.0 0.0       0.0000000170     0.0000000000    -0.0000000170
atom      7.6358918077    19.0947978795    26.7298866694   Al  0.0 0.0       0.0000003351    -0.0000005458     0.0000000796
atom     11.4555874174    15.2740400514    26.7302813338   Al  0.0 0.0       0.0000001100     0.0000000000     0.0000007604
atom     11.4567941080    19.0912859947    22.9104673900   Al  0.0 0.0      -0.0000001774     0.0000001774     0.0000004314
atom      7.6300689551    22.9180111477    -0.0000000000   Al  0.0 0.0      -0.0000003545     0.0000003545     0.0000000000
atom      7.6315732718    26.7313676245     3.8167124782   Al  0.0 0.0      -0.0000005097     0.0000002638    -0.0000002638
atom     11.4532822233    22.9121882951     3.8181934334   Al  0.0 0.0       0.0000005458    -0.0000003351    -0.0000000796
atom     11.4522962022    26.7307319707    -0.0000000000   Al  0.0 0.0      -0.0000010792     0.0000002389     0.0000000000
atom      7.6377747302    22.9103053726     7.6377747302   Al  0.0 0.0       0.0000001205    -0.0000001205     0.0000001205
atom      7.6358918077    26.7298866694    11.4532822233   Al  0.0 0.0       0.0000003351     0.0000000796     0.0000005458
atom     11.4567941080    22.9104673900    11.4567941080   Al  0.0 0.0      -0.0000001774     0.0000004314    -0.0000001774
atom     11.4532822233    26.7298866694     7.6358918077   Al  0.0 0.0       0.0000005458     0.0000000796     0.0000003351
atom      7.6379233360    22.9101567668    15.2740400514   Al  0.0 0.0       0.0000000170    -0.0000000170     0.0000000000
atom      7.6358918077    26.7298866694    19.0947978795   Al  0.0 0.0       0.0000003351     0.0000000796    -0.0000005458
atom     11.4567941080    22.9104673900    19.0912859947   Al  0.0 0.0      -0.0000001774     0.0000004314     0.0000001774
atom     11.4555874174    26.7302813338    15.2740400514   Al  0.0 0.0       0.0000001100     0.0000007604     0.0000000000
atom      7.6377747302    22.9103053726    22.9103053726   Al  0.0 0.0       0.0000001205    -0.0000001205    -0.0000001205
atom      7.6315732718    26.7313676245    26.7313676245   Al  0.0 0.0      -0.0000005097     0.0000002638     0.0000002638
atom     11.4532822233    22.9121882951    26.7298866694   Al  0.0 0.0       0.0000005458    -0.0000003351     0.0000000796
atom     11.4532822233    26.7298866694    22.9121882951   Al  0.0 0.0       0.0000005458     0.0000000796    -0.0000003351
atom     15.2740400514    -0.0000000000    -0.0000000000   Al  0.0 0.0       0.0000000000     0.0000000000     0.0000000000
atom     15.2740400514     3.8184507844     3.8184507844   Al  0.0 0.0       0.0000000000     0.0000000875     0.0000000875
atom     19.0957839006    -0.0000000000     3.8173481321   Al  0.0 0.0       0.0000010792     0.0000000000    -0.0000002389
atom     19.0957839006     3.8173481321    -0.0000000000   Al  0.0 0.0       0.0000010792    -0.0000002389     0.0000000000
atom     15.2740400514    -0.0000000000     7.6366332458   Al  0.0 0.0       0.0000000000     0.0000000000     0.0000000874
atom     15.2740400514     3.8177987689    11.4555874174   Al  0.0 0.0       0.0000000000    -0.0000007604     0.0000001100
atom     19.0959913926    -0.0000000000    11.4520887101   Al  0.0 0.0      -0.0000008772     0.0000000000     0.0000008772
atom     19.0947978795     3.8181934334     7.6358918077   Al  0.0 0.0      -0.0000005458    -0.0000000796     0.0000003351
atom     15.2740400514    -0.0000000000    15.2740400514   Al  0.0 0.0       0.0000000000     0.0000000000     0.0000000000
atom     15.2740400514     3.8177987689    19.0924926853   Al  0.0 0.0       0.0000000000    -0.0000007604    -0.0000001100
atom     19.0959913926    -0.0000000000    19.0959913926   Al  0.0 0.0      -0.0000008772     0.0000000000    -0.0000008772
atom     19.0924926853     3.8177987689    15.2740400514   Al  0.0 0.0      -0.0000001100    -0.0000007604     0.0000000000
atom     15.2740400514    -0.0000000000    22.9114468570   Al  0.0 0.0       0.0000000000     0.0000000000    -0.0000000874
atom     15.2740400514     3.8184507844    26.7296293183   Al  0.0 0.0       0.0000000000     0.0000000875    -0.0000000875
atom     19.0957839006    -0.0000000000    26.7307319707   Al  0.0 0.0       0.0000010792     0.0000000000     0.0000002389
atom     19.0947978795     3.8181934334    22.9121882951   Al  0.0 0.0      -0.0000005458    -0.0000000796    -0.0000003351
atom     15.2740400514     7.6366332458    -0.0000000000   Al  0.0 0.0       0.0000000000     0.0000000874     0.0000000000
atom     15.2740400514    11.4555874174     3.8177987689   Al  0.0 0.0       0.0000000000     0.0000001100    -0.0000007604
atom     19.0947978795     7.6358918077     3.8181934334   Al  0.0 0.0      -0.0000005458     0.0000003351    -0.0000000796
atom     19.0959913926    11.4520887101    -0.0000000000   Al  0.0 0.0      -0.0000008772     0.0000008772     0.0000000000
atom     15.2740400514     7.6379233360     7.6379233360   Al  0.0 0.0       0.0000000000     0.0000000170     0.0000000170
atom     15.2740400514    11.4564677894    11.4564677894   Al  0.0 0.0       0.0000000000     0.0000002312     0.0000002312
atom     19.0912859947     7.6376127127    11.4567941080   Al  0.0 0.0       0.0000001774    -0.0000004314    -0.0000001774
atom     19.0912859947    11.4567941080     7.6376127127   Al  0.0 0.0       0.0000001774    -0.0000001774    -0.0000004314
atom     15.2740400514     7.6374497298    15.2740400514   Al  0.0 0.0       0.0000000000    -0.0000006946     0.0000000000
atom     15.2740400514    11.4564677894    19.0916123134   Al  0.0 0.0       0.0000000000     0.0000002312    -0.0000002312
atom     19.0912859947     7.6376127127    19.0912859947   Al  0.0 0.0       0.0000001774    -0.0000004314     0.0000001774
atom     19.0916123134    11.4564677894    15.2740400514   Al  0.0 0.0      -0.0000002312     0.0000002312     0.0000000000
atom     15.2740400514     7.6379233360    22.9101567668   Al  0.0 0.0       0.0000000000     0.0000000170    -0.0000000170
atom     15.2740400514    11.4555874174    26.7302813338   Al  0.0 0.0       0.0000000000     0.0000001100     0.0000007604
atom     19.0947978795     7.6358918077    26.7298866694   Al  0.0 0.0      -0.0000005458     0.0000003351     0.0000000796
atom     19.0912859947    11.4567941080    22.9104673900   Al  0.0 0.0       0.0000001774    -0.0000001774     0.0000004314
atom     15.2740400514    15.2740400514    -0.0000000000   Al  0.0 0.0       0.0000000000     0.0000000000     0.0000000000
atom     15.2740400514    19.0924926853     3.8177987689   Al  0.0 0.0       0.0000000000    -0.0000001100    -0.0000007604
atom     19.0924926853    15.2740400514     3.8177987689   Al  0.0 0.0      -0.0000001100     0.0000000000    -0.0000007604
atom     19.0959913926    19.0959913926    -0.0000000000   Al  0.0 0.0      -0.0000008772    -0.0000008772     0.0000000000
atom     15.2740400514    15.2740400514     7.6374497298   Al  0.0 0.0       0.0000000000     0.0000000000    -0.0000006946
atom     15.2740400514    19.0916123134    11.4564677894   Al  0.0 0.0       0.0000000000    -0.0000002312     0.0000002312
atom     19.0916123134    15.2740400514    11.4564677894   Al  0.0 0.0      -0.0000002312     0.0000000000     0.0000002312
atom     19.0912859947    19.0912859947     7.6376127127   Al  0.0 0.0       0.0000001774     0.0000001774    -0.0000004314
atom     15.2740400514    15.2740400514    15.2740400514   Al  0.0 0.0       0.0000000000     0.0000000000     0.0000000000
atom     15.2740400514    19.0916123134    19.0916123134   Al  0.0 0.0       0.0000000000    -0.0000002312    -0.0000002312
atom     19.0916123134    15.2740400514    19.0916123134   Al  0.0 0.0      -0.0000002312     0.0000000000    -0.0000002312
atom     19.0916123134    19.0916123134    15.2740400514   Al  0.0 0.0      -0.0000002312    -0.0000002312     0.0000000000
atom     15.2740400514    15.2740400514    22.9106303729   Al  0.0 0.0       0.0000000000     0.0000000000     0.0000006946
atom     15.2740400514    19.0924926853    26.7302813338   Al  0.0 0.0       0.0000000000    -0.0000001100     0.0000007604
atom     19.0924926853    15.2740400514    26.7302813338   Al  0.0 0.0      -0.0000001100     0.0000000000     0.0000007604
atom     19.0912859947    19.0912859947    22.9104673900   Al  0.0 0.0       0.0000001774     0.0000001774     0.0000004314
atom     15.2740400514    22.9114468570    -0.0000000000   Al  0.0 0.0       0.0000000000    -0.0000000874     0.0000000000
atom     15.2740400514    26.7296293183     3.8184507844   Al  0.0 0.0       0.0000000000    -0.0000000875     0.0000000875
atom     19.0947978795    22.9121882951     3.8181934334   Al  0.0 0.0      -0.0000005458    -0.0000003351    -0.0000000796
atom     19.0957839006    26.7307319707    -0.0000000000   Al  0.0 0.0       0.0000010792     0.0000002389     0.0000000000
atom     15.2740400514    22.9101567668     7.6379233360   Al  0.0 0.0       0.0000000000    -0.0000000170     0.0000000170
atom     15.2740400514    26.7302813338    11.4555874174   Al  0.0 0.0       0.0000000000     0.0000007604     0.0000001100
atom     19.0912859947    22.9104673900    11.4567941080   Al  0.0 0.0       0.0000001774     0.0000004314    -0.0000001774
atom     19.0947978795    26.7298866694     7.6358918077   Al  0.0 0.0      -0.0000005458     0.0000000796     0.0000003351
atom     15.2740400514    22.9106303729    15.2740400514   Al  0.0 0.0       0.0000000000     0.0000006946     0.0000000000
atom     15.2740400514    26.7302813338    19.0924926853   Al  0.0 0.0       0.0000000000     0.0000007604    -0.0000001100
atom     19.0912859947    22.9104673900    19.0912859947   Al  0.0 0.0       0.0000001774     0.0000004314     0.0000001774
atom     19.0924926853    26.7302813338    15.2740400514   Al  0.0 0.0      -0.0000001100     0.0000007604     0.0000000000
atom     15.2740400514    22.9101567668    22.9101567668   Al  0.0 0.0       0.0000000000    -0.0000000170    -0.0000000170
atom     15.2740400514    26.7296293183    26.7296293183   Al  0.0 0.0       0.0000000000    -0.0000000875    -0.0000000875
atom     19.0947978795    22.9121882951    26.7298866694   Al  0.0 0.0      -0.0000005458    -0.0000003351     0.0000000796
atom     19.0947978795    26.7298866694    22.9121882951   Al  0.0 0.0      -0.0000005458     0.0000000796    -0.0000003351
atom     22.9213242283    -0.0000000000    -0.0000000000   Al  0.0 0.0       0.0000004469     0.0000000000     0.0000000000
atom     22.9165068309     3.8167124782     3.8167124782   Al  0.0 0.0       0.0000005097    -0.0000002638    -0.0000002638
atom     26.7497550951    -0.0000000000     3.7983250076   Al  0.0 0.0       0.0000000338     0.0000000000    -0.0000000338
atom     26.7497550951     3.7983250076    -0.0000000000   Al  0.0 0.0       0.0000000338    -0.0000000338     0.0000000000
atom     22.9180111477    -0.0000000000     7.6300689551   Al  0.0 0.0       0.0000003545     0.0000000000    -0.0000003545
atom     22.9121882951     3.8181934334    11.4532822233   Al  0.0 0.0      -0.0000003351    -0.0000000796     0.0000005458
atom     26.7307319707    -0.0000000000    11.4522962022   Al  0.0 0.0       0.0000002389     0.0000000000    -0.0000010792
atom     26.7313676245     3.8167124782     7.6315732718   Al  0.0 0.0       0.0000002638    -0.0000002638    -0.0000005097
atom     22.9114468570    -0.0000000000    15.2740400514   Al  0.0 0.0      -0.0000000874     0.0000000000     0.0000000000
atom     22.9121882951     3.8181934334    19.0947978795   Al  0.0 0.0      -0.0000003351    -0.0000000796    -0.0000005458
atom     26.7307319707    -0.0000000000    19.0957839006   Al  0.0 0.0       0.0000002389     0.0000000000     0.0000010792
atom     26.7296293183     3.8184507844    15.2740400514   Al  0.0 0.0      -0.0000000875     0.0000000875     0.0000000000
atom     22.9180111477    -0.0000000000    22.9180111477   Al  0.0 0.0       0.0000003545     0.0000000000     0.0000003545
atom     22.9165068309     3.8167124782    26.7313676245   Al  0.0 0.0       0.0000005097    -0.0000002638     0.0000002638
atom     26.7497550951    -0.0000000000    26.7497550951   Al  0.0 0.0       0.0000000338     0.0000000000     0.0000000338
atom     26.7313676245     3.8167124782    22.9165068309   Al  0.0 0.0       0.0000002638    -0.0000002638     0.0000005097
atom     22.9180111477     7.6300689551    -0.0000000000   Al  0.0 0.0       0.0000003545    -0.0000003545     0.0000000000
atom     22.9121882951    11.4532822233     3.8181934334   Al  0.0 0.0      -0.0000003351     0.0000005458    -0.0000000796
atom     26.7313676245     7.6315732718     3.8167124782   Al  0.0 0.0       0.0000002638    -0.0000005097    -0.0000002638
atom     26.7307319707    11.4522962022    -0.0000000000   Al  0.0 0.0       0.0000002389    -0.0000010792     0.0000000000
atom     22.9103053726     7.6377747302     7.6377747302   Al  0.0 0.0      -0.0000001205     0.0000001205     0.0000001205
atom     22.9104673900    11.4567941080    11.4567941080   Al  0.0 0.0       0.0000004314    -0.0000001774    -0.0000001774
atom     26.7298866694     7.6358918077    11.4532822233   Al  0.0 0.0       0.0000000796     0.0000003351     0.0000005458
atom     26.7298866694    11.4532822233     7.6358918077   Al  0.0 0.0       0.0000000796     0.0000005458     0.0000003351
atom     22.9101567668     7.6379233360    15.2740400514   Al  0.0 0.0      -0.0000000170     0.0000000170     0.0000000000
atom     22.9104673900    11.4567941080    19.0912859947   Al  0.0 0.0       0.0000004314    -0.0000001774     0.0000001774
atom     26.7298866694     7.6358918077    19.0947978795   Al  0.0 0.0       0.0000000796     0.0000003351    -0.0000005458
atom     26.7302813338    11.4555874174    15.2740400514   Al  0.0 0.0       0.0000007604     0.0000001100     0.0000000000
atom     22.9103053726     7.6377747302    22.9103053726   Al  0.0 0.0      -0.0000001205     0.0000001205    -0.0000001205
atom     22.9121882951    11.4532822233    26.7298866694   Al  0.0 0.0      -0.0000003351     0.0000005458     0.0000000796
atom     26.7313676245     7.6315732718    26.7313676245   Al  0.0 0.0       0.0000002638    -0.0000005097     0.0000002638
atom     26.7298866694    11.4532822233    22.9121882951   Al  0.0 0.0       0.0000000796     0.0000005458    -0.0000003351
atom     22.9114468570    15.2740400514    -0.0000000000   Al  0.0 0.0      -0.0000000874     0.0000000000     0.0000000000
atom     22.9121882951    19.0947978795     3.8181934334   Al  0.0 0.0      -0.0000003351    -0.0000005458    -0.0000000796
atom     26.7296293183    15.2740400514     3.8184507844   Al  0.0 0.0      -0.0000000875     0.0000000000     0.0000000875
atom     26.7307319707    19.0957839006    -0.0000000000   Al  0.0 0.0       0.0000002389     0.0000010792     0.0000000000
atom     22.9101567668    15.2740400514     7.6379233360   Al  0.0 0.0      -0.0000000170     0.0000000000     0.0000000170
atom     22.9104673900    19.0912859947    11.4567941080   Al  0.0 0.0       0.0000004314     0.0000001774    -0.0000001774
atom     26.7302813338    15.2740400514    11.4555874174   Al  0.0 0.0       0.0000007604     0.0000000000     0.0000001100
atom     26.7298866694    19.0947978795     7.6358918077   Al  0.0 0.0       0.0000000796    -0.0000005458     0.0000003351
atom     22.9106303729    15.2740400514    15.2740400514   Al  0.0 0.0       0.0000006946     0.0000000000     0.0000000000
atom     22.9104673900    19.0912859947    19.0912859947   Al  0.0 0.0       0.0000004314     0.0000001774     0.0000001774
atom     26.7302813338    15.2740400514    19.0924926853   Al  0.0 0.0       0.0000007604     0.0000000000    -0.0000001100
atom     26.7302813338    19.0924926853    15.2740400514   Al  0.0 0.0       0.0000007604    -0.0000001100     0.0000000000
atom     22.9101567668    15.2740400514    22.9101567668   Al  0.0 0.0      -0.0000000170     0.0000000000    -0.0000000170
atom     22.9121882951    19.0947978795    26.7298866694   Al  0.0 0.0      -0.0000003351    -0.0000005458     0.0000000796
atom     26.7296293183    15.2740400514    26.7296293183   Al  0.0 0.0      -0.0000000875     0.0000000000    -0.0000000875
atom     26.7298866694    19.0947978795    22.9121882951   Al  0.0 0.0       0.0000000796    -0.0000005458    -0.0000003351