begin
comment 8 atoms, species Si8
lattice     10.3376309784     0.0000000000     0.0000000000
lattice      0.0000000000    10.3376309784     0.0000000000
lattice      0.0000000000     0.0000000000    10.3376309784
atom      0.0000000000     0.0000000000     0.0000000000   Si  0.0 0.0   -2.51670663e-13 -2.51544089e-13 -2.51593764e-13
atom      0.0000000000     5.1688154892     5.1688154892   Si  0.0 0.0   -2.51745150e-13  2.58835842e-14  2.60269580e-14
atom      5.1688154892     5.1688154892     0.0000000000   Si  0.0 0.0    2.59835073e-14  2.60283905e-14 -2.51900669e-13
atom      5.1688154892     0.0000000000     5.1688154892   Si  0.0 0.0    2.57314394e-14 -2.51798516e-13  2.60718824e-14
atom      7.7532232338     2.5844077446     7.7532232338   Si  0.0 0.0    2.50432453e-13 -2.47322761e-14  2.49991436e-13
atom      2.5844077446     2.5844077446     2.5844077446   Si  0.0 0.0   -2.45633987e-14 -2.47824669e-14 -2.40411666e-14
atom      2.5844077446     7.7532232338     7.7532232338   Si  0.0 0.0   -2.42589740e-14  2.50361186e-13  2.49740134e-13
atom      7.7532232338     7.7532232338     2.5844077446   Si  0.0 0.0    2.50287258e-13  2.50407540e-13 -2.39972642e-14
energy -4.567852908932848e+01
charge 0.0000
end
