
     Program PWSCF v.6.3 starts on 26Feb2020 at 10:32:32 

     This program is part of the open-source Quantum ESPRESSO suite
     for quantum simulation of materials; please cite
         "P. Giannozzi et al., J. Phys.:Condens. Matter 21 395502 (2009);
         "P. Giannozzi et al., J. Phys.:Condens. Matter 29 465901 (2017);
          URL http://www.quantum-espresso.org", 
     in publications or presentations arising from this work. More details at
     http://www.quantum-espresso.org/quote

 *** WARNING: using old-style file format, will disappear from next version ***

     Parallel version (MPI & OpenMP), running on     288 processor cores
     Number of MPI processes:               288
     Threads/MPI process:                     1

     MPI processes distributed on     8 nodes
     K-points division:     npool     =      36
     R & G space division:  proc/nbgrp/npool/nimage =       8
     Reading input from aiida.in
Warning: card &IONS ignored
Warning: card   !PRESS_CONV_THR = 0.05                 ! JUST FOR VOLUME RELAXATIONS ignored
Warning: card / ignored

     Current dimensions of program PWSCF are:
     Max number of different atomic species (ntypx) = 10
     Max number of k-points (npk) =  40000
     Max angular momentum in pseudopotentials (lmaxx) =  3
               file Al.pbe-n-kjpaw_psl.1.0.0.UPF: wavefunction(s)  3S 3P renormalized

     Subspace diagonalization in iterative solution of the eigenvalue problem:
     one sub-group per band group will be used
     scalapack distributed-memory algorithm (size of sub-group:  2*  2 procs)

 
     Parallelization info
     --------------------
     sticks:   dense  smooth     PW     G-vecs:    dense   smooth      PW
     Min        3740    1497    390               486920   123201   16474
     Max        3741    1498    391               486925   123204   16481
     Sum       29921   11977   3125              3895379   985619  131827
 


     bravais-lattice index     =            0
     lattice parameter (alat)  =      30.6665  a.u.
     unit-cell volume          =   28839.7502 (a.u.)^3
     number of atoms/cell      =          256
     number of atomic types    =            2
     number of electrons       =       770.00
     number of Kohn-Sham states=          462
     kinetic-energy cutoff     =      40.0000  Ry
     charge density cutoff     =     400.0000  Ry
     convergence threshold     =      1.0E-12
     mixing beta               =       0.4000
     number of iterations used =            8  local-TF  mixing
     Exchange-correlation      = SLA PW PBX PBC ( 1  4  3  4 0 0)

     celldm(1)=  30.666473  celldm(2)=   0.000000  celldm(3)=   0.000000
     celldm(4)=   0.000000  celldm(5)=   0.000000  celldm(6)=   0.000000

     crystal axes: (cart. coord. in units of alat)
               a(1) = (   1.000000   0.000000   0.000000 )  
               a(2) = (   0.000000   1.000000   0.000000 )  
               a(3) = (   0.000000   0.000000   1.000000 )  

     reciprocal axes: (cart. coord. in units 2 pi/alat)
               b(1) = (  1.000000  0.000000  0.000000 )  
               b(2) = (  0.000000  1.000000  0.000000 )  
               b(3) = (  0.000000  0.000000  1.000000 )  


     PseudoPot. # 1 for Si read from file:
     /users/aglensk/Dropbox/Albert/scripts/dotfiles/scripts/potentials/quantum_espresso/pseudo_SSSPefV1.1_alalloy/Si.pbe-n-rrkjus_psl.1.0.0.UPF
     MD5 check sum: 0b0bb1205258b0d07b9f9672cf965d36
     Pseudo is Ultrasoft + core correction, Zval =  4.0
     Generated using "atomic" code by A. Dal Corso v.5.1
     Using radial grid of 1141 points,  6 beta functions with: 
                l(1) =   0
                l(2) =   0
                l(3) =   1
                l(4) =   1
                l(5) =   2
                l(6) =   2
     Q(r) pseudized with 0 coefficients 


     PseudoPot. # 2 for Al read from file:
     /users/aglensk/Dropbox/Albert/scripts/dotfiles/scripts/potentials/quantum_espresso/pseudo_SSSPefV1.1_alalloy/Al.pbe-n-kjpaw_psl.1.0.0.UPF
     MD5 check sum: cfc449ca30b5f3223ec38ddd88ac046d
     Pseudo is Projector augmented-wave + core cor, Zval =  3.0
     Generated using "atomic" code by A. Dal Corso v.5.1
     Shape of augmentation charge: PSQ
     Using radial grid of 1135 points,  6 beta functions with: 
                l(1) =   0
                l(2) =   0
                l(3) =   1
                l(4) =   1
                l(5) =   2
                l(6) =   2
     Q(r) pseudized with 0 coefficients 


     atomic species   valence    mass     pseudopotential
        Si             4.00    28.08500     Si( 1.00)
        Al             3.00    26.98154     Al( 1.00)

     No symmetry found


                                    s                        frac. trans.

      isym =  1     identity                                     

 cryst.   s( 1) = (     1          0          0      )
                  (     0          1          0      )
                  (     0          0          1      )

 cart.    s( 1) = (  1.0000000  0.0000000  0.0000000 )
                  (  0.0000000  1.0000000  0.0000000 )
                  (  0.0000000  0.0000000  1.0000000 )


   Cartesian axes

     site n.     atom                  positions (alat units)
         1           Si  tau(   1) = (   0.9995856   0.9995856   0.0000000  )
         2           Al  tau(   2) = (   0.1239927   0.0010074   0.1229423  )
         3           Si  tau(   3) = (   0.1254123   0.1254123   0.0000000  )
         4           Al  tau(   4) = (   0.0010074   0.1239927   0.1229423  )
         5           Al  tau(   5) = (   0.0000199   0.0000199   0.2495267  )
         6           Al  tau(   6) = (   0.1249802   0.1249802   0.2495266  )
         7           Al  tau(   7) = (   0.1249925   0.0000075   0.3748865  )
         8           Al  tau(   8) = (   0.0000075   0.1249925   0.3748865  )
         9           Al  tau(   9) = (   0.9999913   0.9999913   0.5000000  )
        10           Al  tau(  10) = (   0.1250088   0.1250088   0.5000000  )
        11           Al  tau(  11) = (   0.1249925   0.0000075   0.6251135  )
        12           Al  tau(  12) = (   0.0000075   0.1249925   0.6251135  )
        13           Al  tau(  13) = (   0.0000199   0.0000199   0.7504733  )
        14           Al  tau(  14) = (   0.1249802   0.1249802   0.7504734  )
        15           Al  tau(  15) = (   0.1239927   0.0010074   0.8770578  )
        16           Al  tau(  16) = (   0.0010074   0.1239927   0.8770578  )
        17           Al  tau(  17) = (   0.0007816   0.2489246   0.0000000  )
        18           Al  tau(  18) = (   0.1250012   0.3746654   0.0000000  )
        19           Al  tau(  19) = (   0.1249815   0.2492424   0.1242737  )
        20           Al  tau(  20) = (   0.0000096   0.3748689   0.1249808  )
        21           Al  tau(  21) = (   0.9999990   0.2498364   0.2497566  )
        22           Al  tau(  22) = (   0.1249838   0.3748620   0.2498564  )
        23           Al  tau(  23) = (   0.1249872   0.2499760   0.3749379  )
        24           Al  tau(  24) = (   0.0000107   0.3749905   0.3750028  )
        25           Al  tau(  25) = (   0.9999922   0.2499860   0.5000000  )
        26           Al  tau(  26) = (   0.1249997   0.3749892   0.5000000  )
        27           Al  tau(  27) = (   0.1249872   0.2499760   0.6250621  )
        28           Al  tau(  28) = (   0.0000107   0.3749905   0.6249972  )
        29           Al  tau(  29) = (   0.9999990   0.2498364   0.7502434  )
        30           Al  tau(  30) = (   0.1249838   0.3748620   0.7501436  )
        31           Al  tau(  31) = (   0.1249815   0.2492424   0.8757263  )
        32           Al  tau(  32) = (   0.0000096   0.3748689   0.8750192  )
        33           Al  tau(  33) = (   0.0000079   0.4999506   0.0000000  )
        34           Al  tau(  34) = (   0.1249921   0.6250493   0.0000000  )
        35           Al  tau(  35) = (   0.1250072   0.4999555   0.1250017  )
        36           Al  tau(  36) = (   0.9999929   0.6250445   0.1250017  )
        37           Al  tau(  37) = (   0.0000078   0.4999981   0.2499674  )
        38           Al  tau(  38) = (   0.1249923   0.6250019   0.2499675  )
        39           Al  tau(  39) = (   0.1250005   0.5000143   0.3750236  )
        40           Al  tau(  40) = (   0.9999997   0.6249858   0.3750235  )
        41           Al  tau(  41) = (   0.9999982   0.5000138   0.5000000  )
        42           Al  tau(  42) = (   0.1250020   0.6249862   0.5000000  )
        43           Al  tau(  43) = (   0.1250005   0.5000143   0.6249764  )
        44           Al  tau(  44) = (   0.9999997   0.6249858   0.6249765  )
        45           Al  tau(  45) = (   0.0000078   0.4999981   0.7500326  )
        46           Al  tau(  46) = (   0.1249923   0.6250019   0.7500325  )
        47           Al  tau(  47) = (   0.1250072   0.4999555   0.8749983  )
        48           Al  tau(  48) = (   0.9999929   0.6250445   0.8749983  )
        49           Al  tau(  49) = (   0.9999989   0.7503345   0.0000000  )
        50           Al  tau(  50) = (   0.1242186   0.8760754   0.0000000  )
        51           Al  tau(  51) = (   0.1249905   0.7501311   0.1249809  )
        52           Al  tau(  52) = (   0.0000186   0.8757576   0.1242739  )
        53           Al  tau(  53) = (   0.0000163   0.7501380   0.2498565  )
        54           Al  tau(  54) = (   0.1250011   0.8751636   0.2497567  )
        55           Al  tau(  55) = (   0.1249894   0.7500095   0.3750029  )
        56           Al  tau(  56) = (   0.0000129   0.8750240   0.3749380  )
        57           Al  tau(  57) = (   0.0000005   0.7500109   0.5000000  )
        58           Al  tau(  58) = (   0.1250078   0.8750140   0.5000000  )
        59           Al  tau(  59) = (   0.1249894   0.7500095   0.6249971  )
        60           Al  tau(  60) = (   0.0000129   0.8750240   0.6250620  )
        61           Al  tau(  61) = (   0.0000163   0.7501380   0.7501435  )
        62           Al  tau(  62) = (   0.1250011   0.8751636   0.7502433  )
        63           Al  tau(  63) = (   0.1249905   0.7501311   0.8750191  )
        64           Al  tau(  64) = (   0.0000186   0.8757576   0.8757262  )
        65           Al  tau(  65) = (   0.2489246   0.0007816   0.0000000  )
        66           Al  tau(  66) = (   0.3746654   0.1250012   0.0000000  )
        67           Al  tau(  67) = (   0.3748689   0.0000096   0.1249808  )
        68           Al  tau(  68) = (   0.2492424   0.1249815   0.1242737  )
        69           Al  tau(  69) = (   0.2498364   0.9999990   0.2497566  )
        70           Al  tau(  70) = (   0.3748620   0.1249838   0.2498564  )
        71           Al  tau(  71) = (   0.3749905   0.0000107   0.3750028  )
        72           Al  tau(  72) = (   0.2499760   0.1249872   0.3749379  )
        73           Al  tau(  73) = (   0.2499860   0.9999922   0.5000000  )
        74           Al  tau(  74) = (   0.3749892   0.1249997   0.5000000  )
        75           Al  tau(  75) = (   0.3749905   0.0000107   0.6249972  )
        76           Al  tau(  76) = (   0.2499760   0.1249872   0.6250621  )
        77           Al  tau(  77) = (   0.2498364   0.9999990   0.7502434  )
        78           Al  tau(  78) = (   0.3748620   0.1249838   0.7501436  )
        79           Al  tau(  79) = (   0.3748689   0.0000096   0.8750192  )
        80           Al  tau(  80) = (   0.2492424   0.1249815   0.8757263  )
        81           Al  tau(  81) = (   0.2489575   0.2489575   0.0000000  )
        82           Al  tau(  82) = (   0.3749017   0.3749017   0.0000000  )
        83           Al  tau(  83) = (   0.3748631   0.2499624   0.1249480  )
        84           Al  tau(  84) = (   0.2499624   0.3748631   0.1249480  )
        85           Al  tau(  85) = (   0.2500417   0.2500417   0.2499684  )
        86           Al  tau(  86) = (   0.3750359   0.3750359   0.2500304  )
        87           Al  tau(  87) = (   0.3749855   0.2499835   0.3749961  )
        88           Al  tau(  88) = (   0.2499835   0.3749855   0.3749961  )
        89           Al  tau(  89) = (   0.2500070   0.2500070   0.5000000  )
        90           Al  tau(  90) = (   0.3749841   0.3749841   0.5000000  )
        91           Al  tau(  91) = (   0.3749855   0.2499835   0.6250039  )
        92           Al  tau(  92) = (   0.2499835   0.3749855   0.6250039  )
        93           Al  tau(  93) = (   0.2500417   0.2500417   0.7500316  )
        94           Al  tau(  94) = (   0.3750359   0.3750359   0.7499696  )
        95           Al  tau(  95) = (   0.3748631   0.2499624   0.8750520  )
        96           Al  tau(  96) = (   0.2499624   0.3748631   0.8750520  )
        97           Al  tau(  97) = (   0.2499705   0.4999464   0.0000000  )
        98           Al  tau(  98) = (   0.3749976   0.6249904   0.0000000  )
        99           Al  tau(  99) = (   0.3750014   0.5000060   0.1250007  )
       100           Al  tau( 100) = (   0.2499909   0.6250018   0.1249937  )
       101           Al  tau( 101) = (   0.2499908   0.4999923   0.2499841  )
       102           Al  tau( 102) = (   0.3750006   0.6250013   0.2499966  )
       103           Al  tau( 103) = (   0.3749901   0.5000015   0.3749898  )
       104           Al  tau( 104) = (   0.2500002   0.6249953   0.3750135  )
       105           Al  tau( 105) = (   0.2500054   0.5000107   0.5000000  )
       106           Al  tau( 106) = (   0.3749881   0.6250145   0.5000000  )
       107           Al  tau( 107) = (   0.3749901   0.5000015   0.6250103  )
       108           Al  tau( 108) = (   0.2500002   0.6249953   0.6249865  )
       109           Al  tau( 109) = (   0.2499908   0.4999923   0.7500159  )
       110           Al  tau( 110) = (   0.3750006   0.6250013   0.7500034  )
       111           Al  tau( 111) = (   0.3750014   0.5000060   0.8749993  )
       112           Al  tau( 112) = (   0.2499909   0.6250018   0.8750063  )
       113           Al  tau( 113) = (   0.2498498   0.7501972   0.0000000  )
       114           Al  tau( 114) = (   0.3748029   0.8751503   0.0000000  )
       115           Al  tau( 115) = (   0.3749733   0.7500267   0.1249767  )
       116           Al  tau( 116) = (   0.2498848   0.8751153   0.1249929  )
       117           Al  tau( 117) = (   0.2500350   0.7499575   0.2500303  )
       118           Al  tau( 118) = (   0.3750425   0.8749650   0.2500302  )
       119           Al  tau( 119) = (   0.3750059   0.7499941   0.3750081  )
       120           Al  tau( 120) = (   0.2499754   0.8750246   0.3749958  )
       121           Al  tau( 121) = (   0.2499972   0.7499895   0.5000000  )
       122           Al  tau( 122) = (   0.3750104   0.8750028   0.5000000  )
       123           Al  tau( 123) = (   0.3750059   0.7499941   0.6249919  )
       124           Al  tau( 124) = (   0.2499754   0.8750246   0.6250042  )
       125           Al  tau( 125) = (   0.2500350   0.7499575   0.7499698  )
       126           Al  tau( 126) = (   0.3750425   0.8749650   0.7499698  )
       127           Al  tau( 127) = (   0.3749733   0.7500267   0.8750233  )
       128           Al  tau( 128) = (   0.2498848   0.8751153   0.8750071  )
       129           Al  tau( 129) = (   0.4999506   0.0000079   0.0000000  )
       130           Al  tau( 130) = (   0.6250493   0.1249921   0.0000000  )
       131           Al  tau( 131) = (   0.6250445   0.9999929   0.1250017  )
       132           Al  tau( 132) = (   0.4999555   0.1250072   0.1250017  )
       133           Al  tau( 133) = (   0.4999981   0.0000078   0.2499674  )
       134           Al  tau( 134) = (   0.6250019   0.1249923   0.2499675  )
       135           Al  tau( 135) = (   0.6249858   0.9999997   0.3750235  )
       136           Al  tau( 136) = (   0.5000143   0.1250005   0.3750236  )
       137           Al  tau( 137) = (   0.5000138   0.9999982   0.5000000  )
       138           Al  tau( 138) = (   0.6249862   0.1250020   0.5000000  )
       139           Al  tau( 139) = (   0.6249858   0.9999997   0.6249765  )
       140           Al  tau( 140) = (   0.5000143   0.1250005   0.6249764  )
       141           Al  tau( 141) = (   0.4999981   0.0000078   0.7500326  )
       142           Al  tau( 142) = (   0.6250019   0.1249923   0.7500325  )
       143           Al  tau( 143) = (   0.6250445   0.9999929   0.8749983  )
       144           Al  tau( 144) = (   0.4999555   0.1250072   0.8749983  )
       145           Al  tau( 145) = (   0.4999464   0.2499705   0.0000000  )
       146           Al  tau( 146) = (   0.6249904   0.3749976   0.0000000  )
       147           Al  tau( 147) = (   0.6250018   0.2499909   0.1249937  )
       148           Al  tau( 148) = (   0.5000060   0.3750014   0.1250007  )
       149           Al  tau( 149) = (   0.4999923   0.2499908   0.2499841  )
       150           Al  tau( 150) = (   0.6250013   0.3750006   0.2499966  )
       151           Al  tau( 151) = (   0.6249953   0.2500002   0.3750135  )
       152           Al  tau( 152) = (   0.5000015   0.3749901   0.3749898  )
       153           Al  tau( 153) = (   0.5000107   0.2500054   0.5000000  )
       154           Al  tau( 154) = (   0.6250145   0.3749881   0.5000000  )
       155           Al  tau( 155) = (   0.6249953   0.2500002   0.6249865  )
       156           Al  tau( 156) = (   0.5000015   0.3749901   0.6250103  )
       157           Al  tau( 157) = (   0.4999923   0.2499908   0.7500159  )
       158           Al  tau( 158) = (   0.6250013   0.3750006   0.7500034  )
       159           Al  tau( 159) = (   0.6250018   0.2499909   0.8750063  )
       160           Al  tau( 160) = (   0.5000060   0.3750014   0.8749993  )
       161           Al  tau( 161) = (   0.5000036   0.5000036   0.0000000  )
       162           Al  tau( 162) = (   0.6249965   0.6249965   0.0000000  )
       163           Al  tau( 163) = (   0.6249845   0.5000155   0.1249971  )
       164           Al  tau( 164) = (   0.5000155   0.6249845   0.1249971  )
       165           Al  tau( 165) = (   0.5000117   0.5000117   0.2500090  )
       166           Al  tau( 166) = (   0.6249883   0.6249883   0.2500089  )
       167           Al  tau( 167) = (   0.6250162   0.4999836   0.3749748  )
       168           Al  tau( 168) = (   0.4999836   0.6250162   0.3749748  )
       169           Al  tau( 169) = (   0.4999896   0.4999896   0.5000000  )
       170           Al  tau( 170) = (   0.6250102   0.6250102   0.5000000  )
       171           Al  tau( 171) = (   0.6250162   0.4999836   0.6250252  )
       172           Al  tau( 172) = (   0.4999836   0.6250162   0.6250252  )
       173           Al  tau( 173) = (   0.5000117   0.5000117   0.7499910  )
       174           Al  tau( 174) = (   0.6249883   0.6249883   0.7499912  )
       175           Al  tau( 175) = (   0.6249845   0.5000155   0.8750029  )
       176           Al  tau( 176) = (   0.5000155   0.6249845   0.8750029  )
       177           Al  tau( 177) = (   0.5000097   0.7500024   0.0000000  )
       178           Al  tau( 178) = (   0.6250536   0.8750294   0.0000000  )
       179           Al  tau( 179) = (   0.6249940   0.7499986   0.1250006  )
       180           Al  tau( 180) = (   0.4999982   0.8750091   0.1249937  )
       181           Al  tau( 181) = (   0.4999986   0.7499994   0.2499965  )
       182           Al  tau( 182) = (   0.6250077   0.8750093   0.2499840  )
       183           Al  tau( 183) = (   0.6249985   0.7500099   0.3749897  )
       184           Al  tau( 184) = (   0.5000046   0.8749998   0.3750134  )
       185           Al  tau( 185) = (   0.4999854   0.7500118   0.5000000  )
       186           Al  tau( 186) = (   0.6249893   0.8749948   0.5000000  )
       187           Al  tau( 187) = (   0.6249985   0.7500099   0.6250103  )
       188           Al  tau( 188) = (   0.5000046   0.8749998   0.6249866  )
       189           Al  tau( 189) = (   0.4999986   0.7499994   0.7500035  )
       190           Al  tau( 190) = (   0.6250077   0.8750093   0.7500160  )
       191           Al  tau( 191) = (   0.6249940   0.7499986   0.8749994  )
       192           Al  tau( 192) = (   0.4999982   0.8750091   0.8750063  )
       193           Al  tau( 193) = (   0.7503345   0.9999989   0.0000000  )
       194           Al  tau( 194) = (   0.8760754   0.1242186   0.0000000  )
       195           Al  tau( 195) = (   0.8757576   0.0000186   0.1242739  )
       196           Al  tau( 196) = (   0.7501311   0.1249905   0.1249809  )
       197           Al  tau( 197) = (   0.7501380   0.0000163   0.2498565  )
       198           Al  tau( 198) = (   0.8751636   0.1250011   0.2497567  )
       199           Al  tau( 199) = (   0.8750240   0.0000129   0.3749380  )
       200           Al  tau( 200) = (   0.7500095   0.1249894   0.3750029  )
       201           Al  tau( 201) = (   0.7500109   0.0000005   0.5000000  )
       202           Al  tau( 202) = (   0.8750140   0.1250078   0.5000000  )
       203           Al  tau( 203) = (   0.8750240   0.0000129   0.6250620  )
       204           Al  tau( 204) = (   0.7500095   0.1249894   0.6249971  )
       205           Al  tau( 205) = (   0.7501380   0.0000163   0.7501435  )
       206           Al  tau( 206) = (   0.8751636   0.1250011   0.7502433  )
       207           Al  tau( 207) = (   0.8757576   0.0000186   0.8757262  )
       208           Al  tau( 208) = (   0.7501311   0.1249905   0.8750191  )
       209           Al  tau( 209) = (   0.7501972   0.2498498   0.0000000  )
       210           Al  tau( 210) = (   0.8751503   0.3748029   0.0000000  )
       211           Al  tau( 211) = (   0.8751153   0.2498848   0.1249929  )
       212           Al  tau( 212) = (   0.7500267   0.3749733   0.1249767  )
       213           Al  tau( 213) = (   0.7499575   0.2500350   0.2500303  )
       214           Al  tau( 214) = (   0.8749650   0.3750425   0.2500302  )
       215           Al  tau( 215) = (   0.8750246   0.2499754   0.3749958  )
       216           Al  tau( 216) = (   0.7499941   0.3750059   0.3750081  )
       217           Al  tau( 217) = (   0.7499895   0.2499972   0.5000000  )
       218           Al  tau( 218) = (   0.8750028   0.3750104   0.5000000  )
       219           Al  tau( 219) = (   0.8750246   0.2499754   0.6250042  )
       220           Al  tau( 220) = (   0.7499941   0.3750059   0.6249919  )
       221           Al  tau( 221) = (   0.7499575   0.2500350   0.7499698  )
       222           Al  tau( 222) = (   0.8749650   0.3750425   0.7499698  )
       223           Al  tau( 223) = (   0.8751153   0.2498848   0.8750071  )
       224           Al  tau( 224) = (   0.7500267   0.3749733   0.8750233  )
       225           Al  tau( 225) = (   0.7500024   0.5000097   0.0000000  )
       226           Al  tau( 226) = (   0.8750294   0.6250536   0.0000000  )
       227           Al  tau( 227) = (   0.8750091   0.4999982   0.1249937  )
       228           Al  tau( 228) = (   0.7499986   0.6249940   0.1250006  )
       229           Al  tau( 229) = (   0.7499994   0.4999986   0.2499965  )
       230           Al  tau( 230) = (   0.8750093   0.6250077   0.2499840  )
       231           Al  tau( 231) = (   0.8749998   0.5000046   0.3750134  )
       232           Al  tau( 232) = (   0.7500099   0.6249985   0.3749897  )
       233           Al  tau( 233) = (   0.7500118   0.4999854   0.5000000  )
       234           Al  tau( 234) = (   0.8749948   0.6249893   0.5000000  )
       235           Al  tau( 235) = (   0.8749998   0.5000046   0.6249866  )
       236           Al  tau( 236) = (   0.7500099   0.6249985   0.6250103  )
       237           Al  tau( 237) = (   0.7499994   0.4999986   0.7500035  )
       238           Al  tau( 238) = (   0.8750093   0.6250077   0.7500160  )
       239           Al  tau( 239) = (   0.8750091   0.4999982   0.8750063  )
       240           Al  tau( 240) = (   0.7499986   0.6249940   0.8749994  )
       241           Al  tau( 241) = (   0.7500981   0.7500981   0.0000000  )
       242           Al  tau( 242) = (   0.8760424   0.8760424   0.0000000  )
       243           Al  tau( 243) = (   0.8750377   0.7501368   0.1249480  )
       244           Al  tau( 244) = (   0.7501368   0.8750377   0.1249480  )
       245           Al  tau( 245) = (   0.7499641   0.7499641   0.2500303  )
       246           Al  tau( 246) = (   0.8749584   0.8749584   0.2499685  )
       247           Al  tau( 247) = (   0.8750167   0.7500146   0.3749960  )
       248           Al  tau( 248) = (   0.7500146   0.8750167   0.3749960  )
       249           Al  tau( 249) = (   0.7500160   0.7500160   0.5000000  )
       250           Al  tau( 250) = (   0.8749932   0.8749932   0.5000000  )
       251           Al  tau( 251) = (   0.8750167   0.7500146   0.6250040  )
       252           Al  tau( 252) = (   0.7500146   0.8750167   0.6250040  )
       253           Al  tau( 253) = (   0.7499641   0.7499641   0.7499698  )
       254           Al  tau( 254) = (   0.8749584   0.8749584   0.7500315  )
       255           Al  tau( 255) = (   0.8750377   0.7501368   0.8750520  )
       256           Al  tau( 256) = (   0.7501368   0.8750377   0.8750520  )

   Crystallographic axes

     site n.     atom                  positions (cryst. coord.)
         1           Si  tau(   1) = (  0.9995856  0.9995856  0.0000000  )
         2           Al  tau(   2) = (  0.1239927  0.0010074  0.1229423  )
         3           Si  tau(   3) = (  0.1254123  0.1254123  0.0000000  )
         4           Al  tau(   4) = (  0.0010074  0.1239927  0.1229423  )
         5           Al  tau(   5) = (  0.0000199  0.0000199  0.2495267  )
         6           Al  tau(   6) = (  0.1249802  0.1249802  0.2495266  )
         7           Al  tau(   7) = (  0.1249925  0.0000075  0.3748865  )
         8           Al  tau(   8) = (  0.0000075  0.1249925  0.3748865  )
         9           Al  tau(   9) = (  0.9999913  0.9999913  0.5000000  )
        10           Al  tau(  10) = (  0.1250088  0.1250088  0.5000000  )
        11           Al  tau(  11) = (  0.1249925  0.0000075  0.6251135  )
        12           Al  tau(  12) = (  0.0000075  0.1249925  0.6251135  )
        13           Al  tau(  13) = (  0.0000199  0.0000199  0.7504733  )
        14           Al  tau(  14) = (  0.1249802  0.1249802  0.7504734  )
        15           Al  tau(  15) = (  0.1239927  0.0010074  0.8770578  )
        16           Al  tau(  16) = (  0.0010074  0.1239927  0.8770578  )
        17           Al  tau(  17) = (  0.0007816  0.2489246  0.0000000  )
        18           Al  tau(  18) = (  0.1250012  0.3746654  0.0000000  )
        19           Al  tau(  19) = (  0.1249815  0.2492424  0.1242737  )
        20           Al  tau(  20) = (  0.0000096  0.3748689  0.1249808  )
        21           Al  tau(  21) = (  0.9999990  0.2498364  0.2497566  )
        22           Al  tau(  22) = (  0.1249838  0.3748620  0.2498564  )
        23           Al  tau(  23) = (  0.1249872  0.2499760  0.3749379  )
        24           Al  tau(  24) = (  0.0000107  0.3749905  0.3750028  )
        25           Al  tau(  25) = (  0.9999922  0.2499860  0.5000000  )
        26           Al  tau(  26) = (  0.1249997  0.3749892  0.5000000  )
        27           Al  tau(  27) = (  0.1249872  0.2499760  0.6250621  )
        28           Al  tau(  28) = (  0.0000107  0.3749905  0.6249972  )
        29           Al  tau(  29) = (  0.9999990  0.2498364  0.7502434  )
        30           Al  tau(  30) = (  0.1249838  0.3748620  0.7501436  )
        31           Al  tau(  31) = (  0.1249815  0.2492424  0.8757263  )
        32           Al  tau(  32) = (  0.0000096  0.3748689  0.8750192  )
        33           Al  tau(  33) = (  0.0000079  0.4999506  0.0000000  )
        34           Al  tau(  34) = (  0.1249921  0.6250493  0.0000000  )
        35           Al  tau(  35) = (  0.1250072  0.4999555  0.1250017  )
        36           Al  tau(  36) = (  0.9999929  0.6250445  0.1250017  )
        37           Al  tau(  37) = (  0.0000078  0.4999981  0.2499674  )
        38           Al  tau(  38) = (  0.1249923  0.6250019  0.2499675  )
        39           Al  tau(  39) = (  0.1250005  0.5000143  0.3750236  )
        40           Al  tau(  40) = (  0.9999997  0.6249858  0.3750235  )
        41           Al  tau(  41) = (  0.9999982  0.5000138  0.5000000  )
        42           Al  tau(  42) = (  0.1250020  0.6249862  0.5000000  )
        43           Al  tau(  43) = (  0.1250005  0.5000143  0.6249764  )
        44           Al  tau(  44) = (  0.9999997  0.6249858  0.6249765  )
        45           Al  tau(  45) = (  0.0000078  0.4999981  0.7500326  )
        46           Al  tau(  46) = (  0.1249923  0.6250019  0.7500325  )
        47           Al  tau(  47) = (  0.1250072  0.4999555  0.8749983  )
        48           Al  tau(  48) = (  0.9999929  0.6250445  0.8749983  )
        49           Al  tau(  49) = (  0.9999989  0.7503345  0.0000000  )
        50           Al  tau(  50) = (  0.1242186  0.8760754  0.0000000  )
        51           Al  tau(  51) = (  0.1249905  0.7501311  0.1249809  )
        52           Al  tau(  52) = (  0.0000186  0.8757576  0.1242739  )
        53           Al  tau(  53) = (  0.0000163  0.7501380  0.2498565  )
        54           Al  tau(  54) = (  0.1250011  0.8751636  0.2497567  )
        55           Al  tau(  55) = (  0.1249894  0.7500095  0.3750029  )
        56           Al  tau(  56) = (  0.0000129  0.8750240  0.3749380  )
        57           Al  tau(  57) = (  0.0000005  0.7500109  0.5000000  )
        58           Al  tau(  58) = (  0.1250078  0.8750140  0.5000000  )
        59           Al  tau(  59) = (  0.1249894  0.7500095  0.6249971  )
        60           Al  tau(  60) = (  0.0000129  0.8750240  0.6250620  )
        61           Al  tau(  61) = (  0.0000163  0.7501380  0.7501435  )
        62           Al  tau(  62) = (  0.1250011  0.8751636  0.7502433  )
        63           Al  tau(  63) = (  0.1249905  0.7501311  0.8750191  )
        64           Al  tau(  64) = (  0.0000186  0.8757576  0.8757262  )
        65           Al  tau(  65) = (  0.2489246  0.0007816  0.0000000  )
        66           Al  tau(  66) = (  0.3746654  0.1250012  0.0000000  )
        67           Al  tau(  67) = (  0.3748689  0.0000096  0.1249808  )
        68           Al  tau(  68) = (  0.2492424  0.1249815  0.1242737  )
        69           Al  tau(  69) = (  0.2498364  0.9999990  0.2497566  )
        70           Al  tau(  70) = (  0.3748620  0.1249838  0.2498564  )
        71           Al  tau(  71) = (  0.3749905  0.0000107  0.3750028  )
        72           Al  tau(  72) = (  0.2499760  0.1249872  0.3749379  )
        73           Al  tau(  73) = (  0.2499860  0.9999922  0.5000000  )
        74           Al  tau(  74) = (  0.3749892  0.1249997  0.5000000  )
        75           Al  tau(  75) = (  0.3749905  0.0000107  0.6249972  )
        76           Al  tau(  76) = (  0.2499760  0.1249872  0.6250621  )
        77           Al  tau(  77) = (  0.2498364  0.9999990  0.7502434  )
        78           Al  tau(  78) = (  0.3748620  0.1249838  0.7501436  )
        79           Al  tau(  79) = (  0.3748689  0.0000096  0.8750192  )
        80           Al  tau(  80) = (  0.2492424  0.1249815  0.8757263  )
        81           Al  tau(  81) = (  0.2489575  0.2489575  0.0000000  )
        82           Al  tau(  82) = (  0.3749017  0.3749017  0.0000000  )
        83           Al  tau(  83) = (  0.3748631  0.2499624  0.1249480  )
        84           Al  tau(  84) = (  0.2499624  0.3748631  0.1249480  )
        85           Al  tau(  85) = (  0.2500417  0.2500417  0.2499684  )
        86           Al  tau(  86) = (  0.3750359  0.3750359  0.2500304  )
        87           Al  tau(  87) = (  0.3749855  0.2499835  0.3749961  )
        88           Al  tau(  88) = (  0.2499835  0.3749855  0.3749961  )
        89           Al  tau(  89) = (  0.2500070  0.2500070  0.5000000  )
        90           Al  tau(  90) = (  0.3749841  0.3749841  0.5000000  )
        91           Al  tau(  91) = (  0.3749855  0.2499835  0.6250039  )
        92           Al  tau(  92) = (  0.2499835  0.3749855  0.6250039  )
        93           Al  tau(  93) = (  0.2500417  0.2500417  0.7500316  )
        94           Al  tau(  94) = (  0.3750359  0.3750359  0.7499696  )
        95           Al  tau(  95) = (  0.3748631  0.2499624  0.8750520  )
        96           Al  tau(  96) = (  0.2499624  0.3748631  0.8750520  )
        97           Al  tau(  97) = (  0.2499705  0.4999464  0.0000000  )
        98           Al  tau(  98) = (  0.3749976  0.6249904  0.0000000  )
        99           Al  tau(  99) = (  0.3750014  0.5000060  0.1250007  )
       100           Al  tau( 100) = (  0.2499909  0.6250018  0.1249937  )
       101           Al  tau( 101) = (  0.2499908  0.4999923  0.2499841  )
       102           Al  tau( 102) = (  0.3750006  0.6250013  0.2499966  )
       103           Al  tau( 103) = (  0.3749901  0.5000015  0.3749898  )
       104           Al  tau( 104) = (  0.2500002  0.6249953  0.3750135  )
       105           Al  tau( 105) = (  0.2500054  0.5000107  0.5000000  )
       106           Al  tau( 106) = (  0.3749881  0.6250145  0.5000000  )
       107           Al  tau( 107) = (  0.3749901  0.5000015  0.6250103  )
       108           Al  tau( 108) = (  0.2500002  0.6249953  0.6249865  )
       109           Al  tau( 109) = (  0.2499908  0.4999923  0.7500159  )
       110           Al  tau( 110) = (  0.3750006  0.6250013  0.7500034  )
       111           Al  tau( 111) = (  0.3750014  0.5000060  0.8749993  )
       112           Al  tau( 112) = (  0.2499909  0.6250018  0.8750063  )
       113           Al  tau( 113) = (  0.2498498  0.7501972  0.0000000  )
       114           Al  tau( 114) = (  0.3748029  0.8751503  0.0000000  )
       115           Al  tau( 115) = (  0.3749733  0.7500267  0.1249767  )
       116           Al  tau( 116) = (  0.2498848  0.8751153  0.1249929  )
       117           Al  tau( 117) = (  0.2500350  0.7499575  0.2500303  )
       118           Al  tau( 118) = (  0.3750425  0.8749650  0.2500302  )
       119           Al  tau( 119) = (  0.3750059  0.7499941  0.3750081  )
       120           Al  tau( 120) = (  0.2499754  0.8750246  0.3749958  )
       121           Al  tau( 121) = (  0.2499972  0.7499895  0.5000000  )
       122           Al  tau( 122) = (  0.3750104  0.8750028  0.5000000  )
       123           Al  tau( 123) = (  0.3750059  0.7499941  0.6249919  )
       124           Al  tau( 124) = (  0.2499754  0.8750246  0.6250042  )
       125           Al  tau( 125) = (  0.2500350  0.7499575  0.7499698  )
       126           Al  tau( 126) = (  0.3750425  0.8749650  0.7499698  )
       127           Al  tau( 127) = (  0.3749733  0.7500267  0.8750233  )
       128           Al  tau( 128) = (  0.2498848  0.8751153  0.8750071  )
       129           Al  tau( 129) = (  0.4999506  0.0000079  0.0000000  )
       130           Al  tau( 130) = (  0.6250493  0.1249921  0.0000000  )
       131           Al  tau( 131) = (  0.6250445  0.9999929  0.1250017  )
       132           Al  tau( 132) = (  0.4999555  0.1250072  0.1250017  )
       133           Al  tau( 133) = (  0.4999981  0.0000078  0.2499674  )
       134           Al  tau( 134) = (  0.6250019  0.1249923  0.2499675  )
       135           Al  tau( 135) = (  0.6249858  0.9999997  0.3750235  )
       136           Al  tau( 136) = (  0.5000143  0.1250005  0.3750236  )
       137           Al  tau( 137) = (  0.5000138  0.9999982  0.5000000  )
       138           Al  tau( 138) = (  0.6249862  0.1250020  0.5000000  )
       139           Al  tau( 139) = (  0.6249858  0.9999997  0.6249765  )
       140           Al  tau( 140) = (  0.5000143  0.1250005  0.6249764  )
       141           Al  tau( 141) = (  0.4999981  0.0000078  0.7500326  )
       142           Al  tau( 142) = (  0.6250019  0.1249923  0.7500325  )
       143           Al  tau( 143) = (  0.6250445  0.9999929  0.8749983  )
       144           Al  tau( 144) = (  0.4999555  0.1250072  0.8749983  )
       145           Al  tau( 145) = (  0.4999464  0.2499705  0.0000000  )
       146           Al  tau( 146) = (  0.6249904  0.3749976  0.0000000  )
       147           Al  tau( 147) = (  0.6250018  0.2499909  0.1249937  )
       148           Al  tau( 148) = (  0.5000060  0.3750014  0.1250007  )
       149           Al  tau( 149) = (  0.4999923  0.2499908  0.2499841  )
       150           Al  tau( 150) = (  0.6250013  0.3750006  0.2499966  )
       151           Al  tau( 151) = (  0.6249953  0.2500002  0.3750135  )
       152           Al  tau( 152) = (  0.5000015  0.3749901  0.3749898  )
       153           Al  tau( 153) = (  0.5000107  0.2500054  0.5000000  )
       154           Al  tau( 154) = (  0.6250145  0.3749881  0.5000000  )
       155           Al  tau( 155) = (  0.6249953  0.2500002  0.6249865  )
       156           Al  tau( 156) = (  0.5000015  0.3749901  0.6250103  )
       157           Al  tau( 157) = (  0.4999923  0.2499908  0.7500159  )
       158           Al  tau( 158) = (  0.6250013  0.3750006  0.7500034  )
       159           Al  tau( 159) = (  0.6250018  0.2499909  0.8750063  )
       160           Al  tau( 160) = (  0.5000060  0.3750014  0.8749993  )
       161           Al  tau( 161) = (  0.5000036  0.5000036  0.0000000  )
       162           Al  tau( 162) = (  0.6249965  0.6249965  0.0000000  )
       163           Al  tau( 163) = (  0.6249845  0.5000155  0.1249971  )
       164           Al  tau( 164) = (  0.5000155  0.6249845  0.1249971  )
       165           Al  tau( 165) = (  0.5000117  0.5000117  0.2500090  )
       166           Al  tau( 166) = (  0.6249883  0.6249883  0.2500089  )
       167           Al  tau( 167) = (  0.6250162  0.4999836  0.3749748  )
       168           Al  tau( 168) = (  0.4999836  0.6250162  0.3749748  )
       169           Al  tau( 169) = (  0.4999896  0.4999896  0.5000000  )
       170           Al  tau( 170) = (  0.6250102  0.6250102  0.5000000  )
       171           Al  tau( 171) = (  0.6250162  0.4999836  0.6250252  )
       172           Al  tau( 172) = (  0.4999836  0.6250162  0.6250252  )
       173           Al  tau( 173) = (  0.5000117  0.5000117  0.7499910  )
       174           Al  tau( 174) = (  0.6249883  0.6249883  0.7499912  )
       175           Al  tau( 175) = (  0.6249845  0.5000155  0.8750029  )
       176           Al  tau( 176) = (  0.5000155  0.6249845  0.8750029  )
       177           Al  tau( 177) = (  0.5000097  0.7500024  0.0000000  )
       178           Al  tau( 178) = (  0.6250536  0.8750294  0.0000000  )
       179           Al  tau( 179) = (  0.6249940  0.7499986  0.1250006  )
       180           Al  tau( 180) = (  0.4999982  0.8750091  0.1249937  )
       181           Al  tau( 181) = (  0.4999986  0.7499994  0.2499965  )
       182           Al  tau( 182) = (  0.6250077  0.8750093  0.2499840  )
       183           Al  tau( 183) = (  0.6249985  0.7500099  0.3749897  )
       184           Al  tau( 184) = (  0.5000046  0.8749998  0.3750134  )
       185           Al  tau( 185) = (  0.4999854  0.7500118  0.5000000  )
       186           Al  tau( 186) = (  0.6249893  0.8749948  0.5000000  )
       187           Al  tau( 187) = (  0.6249985  0.7500099  0.6250103  )
       188           Al  tau( 188) = (  0.5000046  0.8749998  0.6249866  )
       189           Al  tau( 189) = (  0.4999986  0.7499994  0.7500035  )
       190           Al  tau( 190) = (  0.6250077  0.8750093  0.7500160  )
       191           Al  tau( 191) = (  0.6249940  0.7499986  0.8749994  )
       192           Al  tau( 192) = (  0.4999982  0.8750091  0.8750063  )
       193           Al  tau( 193) = (  0.7503345  0.9999989  0.0000000  )
       194           Al  tau( 194) = (  0.8760754  0.1242186  0.0000000  )
       195           Al  tau( 195) = (  0.8757576  0.0000186  0.1242739  )
       196           Al  tau( 196) = (  0.7501311  0.1249905  0.1249809  )
       197           Al  tau( 197) = (  0.7501380  0.0000163  0.2498565  )
       198           Al  tau( 198) = (  0.8751636  0.1250011  0.2497567  )
       199           Al  tau( 199) = (  0.8750240  0.0000129  0.3749380  )
       200           Al  tau( 200) = (  0.7500095  0.1249894  0.3750029  )
       201           Al  tau( 201) = (  0.7500109  0.0000005  0.5000000  )
       202           Al  tau( 202) = (  0.8750140  0.1250078  0.5000000  )
       203           Al  tau( 203) = (  0.8750240  0.0000129  0.6250620  )
       204           Al  tau( 204) = (  0.7500095  0.1249894  0.6249971  )
       205           Al  tau( 205) = (  0.7501380  0.0000163  0.7501435  )
       206           Al  tau( 206) = (  0.8751636  0.1250011  0.7502433  )
       207           Al  tau( 207) = (  0.8757576  0.0000186  0.8757262  )
       208           Al  tau( 208) = (  0.7501311  0.1249905  0.8750191  )
       209           Al  tau( 209) = (  0.7501972  0.2498498  0.0000000  )
       210           Al  tau( 210) = (  0.8751503  0.3748029  0.0000000  )
       211           Al  tau( 211) = (  0.8751153  0.2498848  0.1249929  )
       212           Al  tau( 212) = (  0.7500267  0.3749733  0.1249767  )
       213           Al  tau( 213) = (  0.7499575  0.2500350  0.2500303  )
       214           Al  tau( 214) = (  0.8749650  0.3750425  0.2500302  )
       215           Al  tau( 215) = (  0.8750246  0.2499754  0.3749958  )
       216           Al  tau( 216) = (  0.7499941  0.3750059  0.3750081  )
       217           Al  tau( 217) = (  0.7499895  0.2499972  0.5000000  )
       218           Al  tau( 218) = (  0.8750028  0.3750104  0.5000000  )
       219           Al  tau( 219) = (  0.8750246  0.2499754  0.6250042  )
       220           Al  tau( 220) = (  0.7499941  0.3750059  0.6249919  )
       221           Al  tau( 221) = (  0.7499575  0.2500350  0.7499698  )
       222           Al  tau( 222) = (  0.8749650  0.3750425  0.7499698  )
       223           Al  tau( 223) = (  0.8751153  0.2498848  0.8750071  )
       224           Al  tau( 224) = (  0.7500267  0.3749733  0.8750233  )
       225           Al  tau( 225) = (  0.7500024  0.5000097  0.0000000  )
       226           Al  tau( 226) = (  0.8750294  0.6250536  0.0000000  )
       227           Al  tau( 227) = (  0.8750091  0.4999982  0.1249937  )
       228           Al  tau( 228) = (  0.7499986  0.6249940  0.1250006  )
       229           Al  tau( 229) = (  0.7499994  0.4999986  0.2499965  )
       230           Al  tau( 230) = (  0.8750093  0.6250077  0.2499840  )
       231           Al  tau( 231) = (  0.8749998  0.5000046  0.3750134  )
       232           Al  tau( 232) = (  0.7500099  0.6249985  0.3749897  )
       233           Al  tau( 233) = (  0.7500118  0.4999854  0.5000000  )
       234           Al  tau( 234) = (  0.8749948  0.6249893  0.5000000  )
       235           Al  tau( 235) = (  0.8749998  0.5000046  0.6249866  )
       236           Al  tau( 236) = (  0.7500099  0.6249985  0.6250103  )
       237           Al  tau( 237) = (  0.7499994  0.4999986  0.7500035  )
       238           Al  tau( 238) = (  0.8750093  0.6250077  0.7500160  )
       239           Al  tau( 239) = (  0.8750091  0.4999982  0.8750063  )
       240           Al  tau( 240) = (  0.7499986  0.6249940  0.8749994  )
       241           Al  tau( 241) = (  0.7500981  0.7500981  0.0000000  )
       242           Al  tau( 242) = (  0.8760424  0.8760424  0.0000000  )
       243           Al  tau( 243) = (  0.8750377  0.7501368  0.1249480  )
       244           Al  tau( 244) = (  0.7501368  0.8750377  0.1249480  )
       245           Al  tau( 245) = (  0.7499641  0.7499641  0.2500303  )
       246           Al  tau( 246) = (  0.8749584  0.8749584  0.2499685  )
       247           Al  tau( 247) = (  0.8750167  0.7500146  0.3749960  )
       248           Al  tau( 248) = (  0.7500146  0.8750167  0.3749960  )
       249           Al  tau( 249) = (  0.7500160  0.7500160  0.5000000  )
       250           Al  tau( 250) = (  0.8749932  0.8749932  0.5000000  )
       251           Al  tau( 251) = (  0.8750167  0.7500146  0.6250040  )
       252           Al  tau( 252) = (  0.7500146  0.8750167  0.6250040  )
       253           Al  tau( 253) = (  0.7499641  0.7499641  0.7499698  )
       254           Al  tau( 254) = (  0.8749584  0.8749584  0.7500315  )
       255           Al  tau( 255) = (  0.8750377  0.7501368  0.8750520  )
       256           Al  tau( 256) = (  0.7501368  0.8750377  0.8750520  )

     number of k points=    63  Methfessel-Paxton smearing, width (Ry)=  0.0441
                       cart. coord. in units 2pi/alat
        k(    1) = (   0.0000000   0.0000000   0.0000000), wk =   0.0160000
        k(    2) = (   0.0000000   0.0000000   0.2000000), wk =   0.0320000
        k(    3) = (   0.0000000   0.0000000   0.4000000), wk =   0.0320000
        k(    4) = (   0.0000000   0.2000000   0.0000000), wk =   0.0320000
        k(    5) = (   0.0000000   0.2000000   0.2000000), wk =   0.0320000
        k(    6) = (   0.0000000   0.2000000   0.4000000), wk =   0.0320000
        k(    7) = (   0.0000000   0.2000000  -0.4000000), wk =   0.0320000
        k(    8) = (   0.0000000   0.2000000  -0.2000000), wk =   0.0320000
        k(    9) = (   0.0000000   0.4000000   0.0000000), wk =   0.0320000
        k(   10) = (   0.0000000   0.4000000   0.2000000), wk =   0.0320000
        k(   11) = (   0.0000000   0.4000000   0.4000000), wk =   0.0320000
        k(   12) = (   0.0000000   0.4000000  -0.4000000), wk =   0.0320000
        k(   13) = (   0.0000000   0.4000000  -0.2000000), wk =   0.0320000
        k(   14) = (   0.2000000   0.0000000   0.0000000), wk =   0.0320000
        k(   15) = (   0.2000000   0.0000000   0.2000000), wk =   0.0320000
        k(   16) = (   0.2000000   0.0000000   0.4000000), wk =   0.0320000
        k(   17) = (   0.2000000   0.0000000  -0.4000000), wk =   0.0320000
        k(   18) = (   0.2000000   0.0000000  -0.2000000), wk =   0.0320000
        k(   19) = (   0.2000000   0.2000000   0.0000000), wk =   0.0320000
        k(   20) = (   0.2000000   0.2000000   0.2000000), wk =   0.0320000
        k(   21) = (   0.2000000   0.2000000   0.4000000), wk =   0.0320000
        k(   22) = (   0.2000000   0.2000000  -0.4000000), wk =   0.0320000
        k(   23) = (   0.2000000   0.2000000  -0.2000000), wk =   0.0320000
        k(   24) = (   0.2000000   0.4000000   0.0000000), wk =   0.0320000
        k(   25) = (   0.2000000   0.4000000   0.2000000), wk =   0.0320000
        k(   26) = (   0.2000000   0.4000000   0.4000000), wk =   0.0320000
        k(   27) = (   0.2000000   0.4000000  -0.4000000), wk =   0.0320000
        k(   28) = (   0.2000000   0.4000000  -0.2000000), wk =   0.0320000
        k(   29) = (   0.2000000  -0.4000000   0.0000000), wk =   0.0320000
        k(   30) = (   0.2000000  -0.4000000   0.2000000), wk =   0.0320000
        k(   31) = (   0.2000000  -0.4000000   0.4000000), wk =   0.0320000
        k(   32) = (   0.2000000  -0.4000000  -0.4000000), wk =   0.0320000
        k(   33) = (   0.2000000  -0.4000000  -0.2000000), wk =   0.0320000
        k(   34) = (   0.2000000  -0.2000000   0.0000000), wk =   0.0320000
        k(   35) = (   0.2000000  -0.2000000   0.2000000), wk =   0.0320000
        k(   36) = (   0.2000000  -0.2000000   0.4000000), wk =   0.0320000
        k(   37) = (   0.2000000  -0.2000000  -0.4000000), wk =   0.0320000
        k(   38) = (   0.2000000  -0.2000000  -0.2000000), wk =   0.0320000
        k(   39) = (   0.4000000   0.0000000   0.0000000), wk =   0.0320000
        k(   40) = (   0.4000000   0.0000000   0.2000000), wk =   0.0320000
        k(   41) = (   0.4000000   0.0000000   0.4000000), wk =   0.0320000
        k(   42) = (   0.4000000   0.0000000  -0.4000000), wk =   0.0320000
        k(   43) = (   0.4000000   0.0000000  -0.2000000), wk =   0.0320000
        k(   44) = (   0.4000000   0.2000000   0.0000000), wk =   0.0320000
        k(   45) = (   0.4000000   0.2000000   0.2000000), wk =   0.0320000
        k(   46) = (   0.4000000   0.2000000   0.4000000), wk =   0.0320000
        k(   47) = (   0.4000000   0.2000000  -0.4000000), wk =   0.0320000
        k(   48) = (   0.4000000   0.2000000  -0.2000000), wk =   0.0320000
        k(   49) = (   0.4000000   0.4000000   0.0000000), wk =   0.0320000
        k(   50) = (   0.4000000   0.4000000   0.2000000), wk =   0.0320000
        k(   51) = (   0.4000000   0.4000000   0.4000000), wk =   0.0320000
        k(   52) = (   0.4000000   0.4000000  -0.4000000), wk =   0.0320000
        k(   53) = (   0.4000000   0.4000000  -0.2000000), wk =   0.0320000
        k(   54) = (   0.4000000  -0.4000000   0.0000000), wk =   0.0320000
        k(   55) = (   0.4000000  -0.4000000   0.2000000), wk =   0.0320000
        k(   56) = (   0.4000000  -0.4000000   0.4000000), wk =   0.0320000
        k(   57) = (   0.4000000  -0.4000000  -0.4000000), wk =   0.0320000
        k(   58) = (   0.4000000  -0.4000000  -0.2000000), wk =   0.0320000
        k(   59) = (   0.4000000  -0.2000000   0.0000000), wk =   0.0320000
        k(   60) = (   0.4000000  -0.2000000   0.2000000), wk =   0.0320000
        k(   61) = (   0.4000000  -0.2000000   0.4000000), wk =   0.0320000
        k(   62) = (   0.4000000  -0.2000000  -0.4000000), wk =   0.0320000
        k(   63) = (   0.4000000  -0.2000000  -0.2000000), wk =   0.0320000

                       cryst. coord.
        k(    1) = (   0.0000000   0.0000000   0.0000000), wk =   0.0160000
        k(    2) = (   0.0000000   0.0000000   0.2000000), wk =   0.0320000
        k(    3) = (   0.0000000   0.0000000   0.4000000), wk =   0.0320000
        k(    4) = (   0.0000000   0.2000000   0.0000000), wk =   0.0320000
        k(    5) = (   0.0000000   0.2000000   0.2000000), wk =   0.0320000
        k(    6) = (   0.0000000   0.2000000   0.4000000), wk =   0.0320000
        k(    7) = (   0.0000000   0.2000000  -0.4000000), wk =   0.0320000
        k(    8) = (   0.0000000   0.2000000  -0.2000000), wk =   0.0320000
        k(    9) = (   0.0000000   0.4000000   0.0000000), wk =   0.0320000
        k(   10) = (   0.0000000   0.4000000   0.2000000), wk =   0.0320000
        k(   11) = (   0.0000000   0.4000000   0.4000000), wk =   0.0320000
        k(   12) = (   0.0000000   0.4000000  -0.4000000), wk =   0.0320000
        k(   13) = (   0.0000000   0.4000000  -0.2000000), wk =   0.0320000
        k(   14) = (   0.2000000   0.0000000   0.0000000), wk =   0.0320000
        k(   15) = (   0.2000000   0.0000000   0.2000000), wk =   0.0320000
        k(   16) = (   0.2000000   0.0000000   0.4000000), wk =   0.0320000
        k(   17) = (   0.2000000   0.0000000  -0.4000000), wk =   0.0320000
        k(   18) = (   0.2000000   0.0000000  -0.2000000), wk =   0.0320000
        k(   19) = (   0.2000000   0.2000000   0.0000000), wk =   0.0320000
        k(   20) = (   0.2000000   0.2000000   0.2000000), wk =   0.0320000
        k(   21) = (   0.2000000   0.2000000   0.4000000), wk =   0.0320000
        k(   22) = (   0.2000000   0.2000000  -0.4000000), wk =   0.0320000
        k(   23) = (   0.2000000   0.2000000  -0.2000000), wk =   0.0320000
        k(   24) = (   0.2000000   0.4000000   0.0000000), wk =   0.0320000
        k(   25) = (   0.2000000   0.4000000   0.2000000), wk =   0.0320000
        k(   26) = (   0.2000000   0.4000000   0.4000000), wk =   0.0320000
        k(   27) = (   0.2000000   0.4000000  -0.4000000), wk =   0.0320000
        k(   28) = (   0.2000000   0.4000000  -0.2000000), wk =   0.0320000
        k(   29) = (   0.2000000  -0.4000000   0.0000000), wk =   0.0320000
        k(   30) = (   0.2000000  -0.4000000   0.2000000), wk =   0.0320000
        k(   31) = (   0.2000000  -0.4000000   0.4000000), wk =   0.0320000
        k(   32) = (   0.2000000  -0.4000000  -0.4000000), wk =   0.0320000
        k(   33) = (   0.2000000  -0.4000000  -0.2000000), wk =   0.0320000
        k(   34) = (   0.2000000  -0.2000000   0.0000000), wk =   0.0320000
        k(   35) = (   0.2000000  -0.2000000   0.2000000), wk =   0.0320000
        k(   36) = (   0.2000000  -0.2000000   0.4000000), wk =   0.0320000
        k(   37) = (   0.2000000  -0.2000000  -0.4000000), wk =   0.0320000
        k(   38) = (   0.2000000  -0.2000000  -0.2000000), wk =   0.0320000
        k(   39) = (   0.4000000   0.0000000   0.0000000), wk =   0.0320000
        k(   40) = (   0.4000000   0.0000000   0.2000000), wk =   0.0320000
        k(   41) = (   0.4000000   0.0000000   0.4000000), wk =   0.0320000
        k(   42) = (   0.4000000   0.0000000  -0.4000000), wk =   0.0320000
        k(   43) = (   0.4000000   0.0000000  -0.2000000), wk =   0.0320000
        k(   44) = (   0.4000000   0.2000000   0.0000000), wk =   0.0320000
        k(   45) = (   0.4000000   0.2000000   0.2000000), wk =   0.0320000
        k(   46) = (   0.4000000   0.2000000   0.4000000), wk =   0.0320000
        k(   47) = (   0.4000000   0.2000000  -0.4000000), wk =   0.0320000
        k(   48) = (   0.4000000   0.2000000  -0.2000000), wk =   0.0320000
        k(   49) = (   0.4000000   0.4000000   0.0000000), wk =   0.0320000
        k(   50) = (   0.4000000   0.4000000   0.2000000), wk =   0.0320000
        k(   51) = (   0.4000000   0.4000000   0.4000000), wk =   0.0320000
        k(   52) = (   0.4000000   0.4000000  -0.4000000), wk =   0.0320000
        k(   53) = (   0.4000000   0.4000000  -0.2000000), wk =   0.0320000
        k(   54) = (   0.4000000  -0.4000000   0.0000000), wk =   0.0320000
        k(   55) = (   0.4000000  -0.4000000   0.2000000), wk =   0.0320000
        k(   56) = (   0.4000000  -0.4000000   0.4000000), wk =   0.0320000
        k(   57) = (   0.4000000  -0.4000000  -0.4000000), wk =   0.0320000
        k(   58) = (   0.4000000  -0.4000000  -0.2000000), wk =   0.0320000
        k(   59) = (   0.4000000  -0.2000000   0.0000000), wk =   0.0320000
        k(   60) = (   0.4000000  -0.2000000   0.2000000), wk =   0.0320000
        k(   61) = (   0.4000000  -0.2000000   0.4000000), wk =   0.0320000
        k(   62) = (   0.4000000  -0.2000000  -0.4000000), wk =   0.0320000
        k(   63) = (   0.4000000  -0.2000000  -0.2000000), wk =   0.0320000

     Dense  grid:  3895379 G-vectors     FFT dimensions: ( 200, 200, 200)

     Smooth grid:   985619 G-vectors     FFT dimensions: ( 125, 125, 125)

     Dynamical RAM for                 wfc:     108.56 MB

     Dynamical RAM for     wfc (w. buffer):     325.69 MB

     Dynamical RAM for           str. fact:      14.86 MB

     Dynamical RAM for           local pot:       0.00 MB

     Dynamical RAM for          nlocal pot:    1082.81 MB

     Dynamical RAM for                qrad:      15.65 MB

     Dynamical RAM for          rho,v,vnew:      45.18 MB

     Dynamical RAM for               rhoin:      15.06 MB

     Dynamical RAM for            rho*nmix:     118.88 MB

     Dynamical RAM for           G-vectors:      28.80 MB

     Dynamical RAM for          h,s,v(r/c):      39.08 MB

     Dynamical RAM for          <psi|beta>:      32.48 MB

     Dynamical RAM for                 psi:     434.25 MB

     Dynamical RAM for                hpsi:     434.25 MB

     Dynamical RAM for                spsi:     434.25 MB

     Dynamical RAM for      wfcinit/wfcrot:     505.26 MB

     Dynamical RAM for           addusdens:      98.03 MB

     Dynamical RAM for          addusforce:     201.19 MB

     Dynamical RAM for         addusstress:      45.09 MB

     Estimated static dynamical RAM per process >       1.67 GB

     Estimated max dynamical RAM per process >       3.01 GB

     Estimated total dynamical RAM >     866.72 GB

     Initial potential from superposition of free atoms

     starting charge  769.41717, renormalised to  770.00000
     Starting wfcs are 1024 randomized atomic wfcs
     Checking if some PAW data can be deallocated... 
       PAW data deallocated on    4 nodes for type:  2

     total cpu time spent up to now is      200.0 secs

     Self-consistent Calculation

     iteration #  1     ecut=    40.00 Ry     beta= 0.40
     Davidson diagonalization with overlap
     ethr =  1.00E-02,  avg # of iterations =  3.0

     Threshold (ethr) on eigenvalues was too large:
     Diagonalizing with lowered threshold

     Davidson diagonalization with overlap
     ethr =  1.84E-04,  avg # of iterations =  7.8

     total cpu time spent up to now is      965.5 secs

     total energy              =  -10056.65748432 Ry
     Harris-Foulkes estimate   =  -10056.82230179 Ry
     estimated scf accuracy    <       1.43160113 Ry

     iteration #  2     ecut=    40.00 Ry     beta= 0.40
     Davidson diagonalization with overlap
     ethr =  1.86E-04,  avg # of iterations =  1.1

     total cpu time spent up to now is     1188.9 secs

     total energy              =  -10056.45392897 Ry
     Harris-Foulkes estimate   =  -10056.66366794 Ry
     estimated scf accuracy    <       0.74429572 Ry

     iteration #  3     ecut=    40.00 Ry     beta= 0.40
     Davidson diagonalization with overlap
     ethr =  9.67E-05,  avg # of iterations =  1.0

     total cpu time spent up to now is     1412.4 secs

     total energy              =  -10056.46513737 Ry
     Harris-Foulkes estimate   =  -10056.46801699 Ry
     estimated scf accuracy    <       0.00346084 Ry

     iteration #  4     ecut=    40.00 Ry     beta= 0.40
     Davidson diagonalization with overlap
     ethr =  4.49E-07,  avg # of iterations = 20.0

     total cpu time spent up to now is     2121.4 secs

     total energy              =  -10056.46816531 Ry
     Harris-Foulkes estimate   =  -10056.46809850 Ry
     estimated scf accuracy    <       0.00404006 Ry

     iteration #  5     ecut=    40.00 Ry     beta= 0.40
     Davidson diagonalization with overlap
     ethr =  4.49E-07,  avg # of iterations =  6.7

     total cpu time spent up to now is     2410.7 secs

     total energy              =  -10056.46746938 Ry
     Harris-Foulkes estimate   =  -10056.46816668 Ry
     estimated scf accuracy    <       0.00458664 Ry

     iteration #  6     ecut=    40.00 Ry     beta= 0.40
     Davidson diagonalization with overlap
     ethr =  4.49E-07,  avg # of iterations =  3.7

     total cpu time spent up to now is     2693.4 secs

     total energy              =  -10056.46763811 Ry
     Harris-Foulkes estimate   =  -10056.46764667 Ry
     estimated scf accuracy    <       0.00015768 Ry

     iteration #  7     ecut=    40.00 Ry     beta= 0.40
     Davidson diagonalization with overlap
     ethr =  2.05E-08,  avg # of iterations =  5.8

     total cpu time spent up to now is     3071.1 secs

     total energy              =  -10056.46766506 Ry
     Harris-Foulkes estimate   =  -10056.46766543 Ry
     estimated scf accuracy    <       0.00000959 Ry

     iteration #  8     ecut=    40.00 Ry     beta= 0.40
     Davidson diagonalization with overlap
     ethr =  1.25E-09,  avg # of iterations =  2.2

     total cpu time spent up to now is     3305.1 secs

     total energy              =  -10056.46766386 Ry
     Harris-Foulkes estimate   =  -10056.46766520 Ry
     estimated scf accuracy    <       0.00000603 Ry

     iteration #  9     ecut=    40.00 Ry     beta= 0.40
     Davidson diagonalization with overlap
     ethr =  7.84E-10,  avg # of iterations =  2.9

     total cpu time spent up to now is     3551.8 secs

     total energy              =  -10056.46766419 Ry
     Harris-Foulkes estimate   =  -10056.46766431 Ry
     estimated scf accuracy    <       0.00000155 Ry

     iteration # 10     ecut=    40.00 Ry     beta= 0.40
     Davidson diagonalization with overlap
     ethr =  2.01E-10,  avg # of iterations =  2.6

     total cpu time spent up to now is     3786.1 secs

     total energy              =  -10056.46766414 Ry
     Harris-Foulkes estimate   =  -10056.46766422 Ry
     estimated scf accuracy    <       0.00000172 Ry

     iteration # 11     ecut=    40.00 Ry     beta= 0.40
     Davidson diagonalization with overlap
     ethr =  2.01E-10,  avg # of iterations =  1.0

     total cpu time spent up to now is     4009.3 secs

     total energy              =  -10056.46766402 Ry
     Harris-Foulkes estimate   =  -10056.46766412 Ry
     estimated scf accuracy    <       0.00000128 Ry

     iteration # 12     ecut=    40.00 Ry     beta= 0.40
     Davidson diagonalization with overlap
     ethr =  1.66E-10,  avg # of iterations =  1.0

     total cpu time spent up to now is     4232.3 secs

     total energy              =  -10056.46766400 Ry
     Harris-Foulkes estimate   =  -10056.46766400 Ry
     estimated scf accuracy    <       0.00000046 Ry

     iteration # 13     ecut=    40.00 Ry     beta= 0.40
     Davidson diagonalization with overlap
     ethr =  5.93E-11,  avg # of iterations =  1.0

     total cpu time spent up to now is     4455.8 secs

     total energy              =  -10056.46766394 Ry
     Harris-Foulkes estimate   =  -10056.46766397 Ry
     estimated scf accuracy    <       0.00000042 Ry

     iteration # 14     ecut=    40.00 Ry     beta= 0.40
     Davidson diagonalization with overlap
     ethr =  5.46E-11,  avg # of iterations =  1.5

     total cpu time spent up to now is     4681.1 secs

     total energy              =  -10056.46766388 Ry
     Harris-Foulkes estimate   =  -10056.46766391 Ry
     estimated scf accuracy    <       0.00000022 Ry

     iteration # 15     ecut=    40.00 Ry     beta= 0.40
     Davidson diagonalization with overlap
     ethr =  2.91E-11,  avg # of iterations =  3.8

     total cpu time spent up to now is     4932.3 secs

     total energy              =  -10056.46766381 Ry
     Harris-Foulkes estimate   =  -10056.46766380 Ry
     estimated scf accuracy    <       0.00000002 Ry

     iteration # 16     ecut=    40.00 Ry     beta= 0.40
     Davidson diagonalization with overlap
     ethr =  2.94E-12,  avg # of iterations =  3.6

     total cpu time spent up to now is     5227.1 secs

     total energy              =  -10056.46766372 Ry
     Harris-Foulkes estimate   =  -10056.46766372 Ry
     estimated scf accuracy    <          3.8E-09 Ry

     iteration # 17     ecut=    40.00 Ry     beta= 0.40
     Davidson diagonalization with overlap
     ethr =  4.92E-13,  avg # of iterations =  2.1

     total cpu time spent up to now is     5463.7 secs

     total energy              =  -10056.46766368 Ry
     Harris-Foulkes estimate   =  -10056.46766368 Ry
     estimated scf accuracy    <          5.3E-09 Ry

     iteration # 18     ecut=    40.00 Ry     beta= 0.40
     Davidson diagonalization with overlap
     ethr =  4.92E-13,  avg # of iterations =  1.0

     total cpu time spent up to now is     5686.9 secs

     total energy              =  -10056.46766367 Ry
     Harris-Foulkes estimate   =  -10056.46766367 Ry
     estimated scf accuracy    <          1.9E-09 Ry

     iteration # 19     ecut=    40.00 Ry     beta= 0.40
     Davidson diagonalization with overlap
     ethr =  2.43E-13,  avg # of iterations =  4.0

     total cpu time spent up to now is     5969.7 secs

     total energy              =  -10056.46766362 Ry
     Harris-Foulkes estimate   =  -10056.46766362 Ry
     estimated scf accuracy    <          1.0E-09 Ry

     iteration # 20     ecut=    40.00 Ry     beta= 0.40
     Davidson diagonalization with overlap
     ethr =  1.31E-13,  avg # of iterations =  1.7

     total cpu time spent up to now is     6196.8 secs

     total energy              =  -10056.46766360 Ry
     Harris-Foulkes estimate   =  -10056.46766360 Ry
     estimated scf accuracy    <          1.1E-10 Ry

     iteration # 21     ecut=    40.00 Ry     beta= 0.40
     Davidson diagonalization with overlap
     ethr =  1.00E-13,  avg # of iterations =  2.2

     total cpu time spent up to now is     6423.6 secs

     total energy              =  -10056.46766359 Ry
     Harris-Foulkes estimate   =  -10056.46766359 Ry
     estimated scf accuracy    <          4.3E-11 Ry

     iteration # 22     ecut=    40.00 Ry     beta= 0.40
     Davidson diagonalization with overlap
     ethr =  1.00E-13,  avg # of iterations =  1.0

     total cpu time spent up to now is     6646.6 secs

     total energy              =  -10056.46766358 Ry
     Harris-Foulkes estimate   =  -10056.46766358 Ry
     estimated scf accuracy    <          2.1E-11 Ry

     iteration # 23     ecut=    40.00 Ry     beta= 0.40
     Davidson diagonalization with overlap
     ethr =  1.00E-13,  avg # of iterations =  1.0

     total cpu time spent up to now is     6869.7 secs

     total energy              =  -10056.46766358 Ry
     Harris-Foulkes estimate   =  -10056.46766358 Ry
     estimated scf accuracy    <          4.7E-12 Ry

     iteration # 24     ecut=    40.00 Ry     beta= 0.40
     Davidson diagonalization with overlap
     ethr =  1.00E-13,  avg # of iterations =  1.0

     total cpu time spent up to now is     7093.1 secs

     total energy              =  -10056.46766357 Ry
     Harris-Foulkes estimate   =  -10056.46766357 Ry
     estimated scf accuracy    <          2.0E-12 Ry

     iteration # 25     ecut=    40.00 Ry     beta= 0.40
     Davidson diagonalization with overlap
     ethr =  1.00E-13,  avg # of iterations =  1.0

     total cpu time spent up to now is     7315.6 secs

     total energy              =  -10056.46766357 Ry
     Harris-Foulkes estimate   =  -10056.46766357 Ry
     estimated scf accuracy    <          3.3E-12 Ry

     iteration # 26     ecut=    40.00 Ry     beta= 0.40
     Davidson diagonalization with overlap
     ethr =  1.00E-13,  avg # of iterations =  1.0

     total cpu time spent up to now is     7538.9 secs

     total energy              =  -10056.46766356 Ry
     Harris-Foulkes estimate   =  -10056.46766356 Ry
     estimated scf accuracy    <          4.3E-12 Ry

     iteration # 27     ecut=    40.00 Ry     beta= 0.40
     Davidson diagonalization with overlap
     ethr =  1.00E-13,  avg # of iterations =  1.0

     total cpu time spent up to now is     7761.7 secs

     total energy              =  -10056.46766356 Ry
     Harris-Foulkes estimate   =  -10056.46766356 Ry
     estimated scf accuracy    <          5.4E-12 Ry

     iteration # 28     ecut=    40.00 Ry     beta= 0.40
     Davidson diagonalization with overlap
     ethr =  1.00E-13,  avg # of iterations =  1.0

     total cpu time spent up to now is     7984.0 secs

     total energy              =  -10056.46766355 Ry
     Harris-Foulkes estimate   =  -10056.46766355 Ry
     estimated scf accuracy    <          1.5E-12 Ry

     iteration # 29     ecut=    40.00 Ry     beta= 0.40
     Davidson diagonalization with overlap
     ethr =  1.00E-13,  avg # of iterations =  1.0

     total cpu time spent up to now is     8206.1 secs

     End of self-consistent calculation

          k = 0.0000 0.0000 0.0000 (123065 PWs)   bands (ev):

    -3.3511  -3.0032  -2.7315  -2.6994  -2.6992  -2.6984  -2.6977  -2.3967
    -2.2538  -2.1475  -2.1454  -2.1400  -2.1399  -2.1397  -2.1386  -2.1385
    -2.1383  -2.1383  -2.1375  -1.7115  -1.6784  -1.5938  -1.5898  -1.5843
    -1.5838  -1.5812  -1.5787  -1.1455  -1.1361  -1.0381  -1.0323  -1.0311
    -1.0285  -0.7726  -0.7406  -0.5164  -0.5129  -0.4949  -0.4944  -0.4883
    -0.4759  -0.4755  -0.4755  -0.4753  -0.4748  -0.4747  -0.4747  -0.4745
    -0.4744  -0.4744  -0.4743  -0.4732  -0.4727  -0.4723  -0.4721  -0.4703
    -0.4700  -0.1031  -0.0779   0.0269   0.0369   0.0391   0.0540   0.0629
     0.0742   0.0750   0.0753   0.0758   0.0759   0.0761   0.0761   0.0768
     0.0770   0.0772   0.0772   0.0773   0.0776   0.0784   0.0785   0.0793
     0.0806   0.9786   1.0628   1.1416   1.1460   1.1474   1.1490   1.1602
     1.1657   1.1702   1.1707   1.1716   1.1736   1.4491   1.5310   1.6273
     1.6465   1.6499   1.6720   1.6762   1.7046   1.7052   1.7081   1.7082
     1.7090   1.7096   1.7106   1.7126   1.7137   1.7142   1.7147   1.7159
     1.7160   1.7160   1.7163   1.7164   1.7164   1.7165   1.7168   1.7171
     1.7175   1.7178   1.7188   2.0886   2.1494   2.1833   2.1869   2.1935
     2.2219   2.2292   2.2419   2.2449   2.2458   2.2465   2.2487   2.2488
     2.2491   2.2492   2.2499   2.2503   2.2505   2.2508   2.2513   2.2532
     2.2538   2.2545   2.2556   2.6517   2.6983   2.7249   2.7382   2.7399
     2.7515   2.7561   2.7763   2.7823   2.7843   2.7843   2.7845   2.7854
     2.7882   2.7893   2.7895   2.7899   2.7901   2.7918   2.7921   2.7927
     2.7933   2.7934   2.7960   3.2238   3.2243   3.2333   3.2365   3.3662
     3.3822   3.4290   3.4292   3.7035   3.7703   3.7871   3.7880   3.8091
     3.8101   3.8193   3.8350   3.8530   3.8548   3.8577   3.8578   3.8588
     3.8603   3.8610   3.8613   3.8614   3.8625   3.8639   3.8640   3.8659
     3.8662   3.8675   3.8675   4.1717   4.1964   4.2024   4.2271   4.2423
     4.2631   4.2831   4.2845   4.2853   4.2873   4.2874   4.2877   4.2885
     4.2886   4.2889   4.2892   4.2893   4.2893   4.2894   4.2897   4.2899
     4.2900   4.2901   4.2907   4.2929   4.3514   4.4946   4.4959   4.4978
     4.5036   4.5073   4.5076   4.5101   4.5112   4.5137   4.5183   4.5194
     4.5201   4.5204   4.5206   4.5212   4.5213   4.5214   4.5216   4.5217
     4.5218   4.5218   4.5221   4.8775   4.8793   4.8803   5.3259   5.3297
     5.3403   5.4009   5.4076   5.4102   5.4168   5.4174   5.4174   5.4175
     5.4176   5.4177   5.8145   5.8164   5.8566   5.8588   5.8816   5.8852
     5.8878   5.9153   5.9306   5.9311   5.9321   5.9330   5.9337   5.9357
     5.9491   5.9600   5.9698   5.9730   5.9923   5.9938   5.9945   5.9979
     6.0011   6.0041   6.0044   6.0048   6.0050   6.0056   6.0059   6.0059
     6.0060   6.0063   6.0065   6.0067   6.0073   6.0083   6.1588   6.1794
     6.1934   6.3991   6.4250   6.4261   6.4270   6.4280   6.4321   6.4418
     6.4442   6.4481   6.4504   6.4517   6.4569   6.5727   6.6493   6.7187
     6.7279   6.7280   6.7307   6.7319   6.7358   6.7389   6.7393   6.7400
     6.7406   6.8892   6.8897   6.8920   6.9165   6.9186   6.9268   6.9565
     6.9577   6.9609   6.9633   6.9660   6.9676   6.9684   6.9751   7.0030
     7.0049   7.0145   7.0183   7.0265   7.0294   7.0363   7.0364   7.0371
     7.0400   7.0420   7.0468   7.0468   7.0471   7.0479   7.0488   7.0501
     7.0502   7.0503   7.0508   7.0509   7.0519   7.2592   7.3007   7.3689
     7.3739   7.3742   7.3746   7.3783   7.3784   7.3796   7.3799   7.3801
     7.3804   7.4001   7.4138   7.4193   7.4213   7.4217   7.4367   7.4723
     7.4727   7.4733   7.4756   7.4759   7.4805   7.4828   7.4843   7.4845
     7.4847   7.4848   7.4850   7.4855   7.4861   7.4863   7.4866   7.4880
     7.4887   7.9644   7.9649   7.9718   7.9732   7.9769   7.9874   8.4078
     8.4435   8.5236   8.5560   8.5561   8.5721   8.6007   8.6047   8.6106
     8.6139   8.6183   8.6225   8.6227   8.6251   8.6260   8.6261   8.6263
     8.6266   8.6270   8.6270   8.6273   8.6274   8.6283   8.6286   8.6961
     8.7583   8.8394   8.8396   8.8397   8.8403   8.8766   8.8777   8.8793
     8.8876   8.8888   8.8935   8.8949   8.9160   8.9190   8.9228   8.9269
     8.9271   8.9274   8.9281   8.9287   8.9290   8.9295   8.9296   8.9305
     8.9316   8.9321   8.9322   8.9323   8.9331   8.9982

     occupation numbers 
     1.0000   1.0000   1.0000   1.0000   1.0000   1.0000   1.0000   1.0000
     1.0000   1.0000   1.0000   1.0000   1.0000   1.0000   1.0000   1.0000
     1.0000   1.0000   1.0000   1.0000   1.0000   1.0000   1.0000   1.0000
     1.0000   1.0000   1.0000   1.0000   1.0000   1.0000   1.0000   1.0000
     1.0000   1.0000   1.0000   1.0000   1.0000   1.0000   1.0000   1.0000
     1.0000   1.0000   1.0000   1.0000   1.0000   1.0000   1.0000   1.0000
     1.0000   1.0000   1.0000   1.0000   1.0000   1.0000   1.0000   1.0000
     1.0000   1.0000   1.0000   1.0000   1.0000   1.0000   1.0000   1.0000
     1.0000   1.0000   1.0000   1.0000   1.0000   1.0000   1.0000   1.0000
     1.0000   1.0000   1.0000   1.0000   1.0000   1.0000   1.0000   1.0000
     1.0000   1.0000   1.0000   1.0000   1.0000   1.0000   1.0000   1.0000
     1.0000   1.0000   1.0000   1.0000   1.0000   1.0000   1.0000   1.0000
     1.0000   1.0000   1.0000   1.0000   1.0000   1.0000   1.0000   1.0000
     1.0000   1.0000   1.0000   1.0000   1.0000   1.0000   1.0000   1.0000
     1.0000   1.0000   1.0000   1.0000   1.0000   1.0000   1.0000   1.0000
     1.0000   1.0000   1.0000   1.0000   1.0000   1.0000   1.0000   1.0000
     1.0000   1.0000   1.0000   1.0000   1.0000   1.0000   1.0000   1.0000
     1.0000   1.0000   1.0000   1.0000   1.0000   1.0000   1.0000   1.0000
     1.0000   1.0000   1.0000   1.0000   1.0000   1.0000   1.0000   1.0000
     1.0000   1.0000   1.0000   1.0000   1.0000   1.0000   1.0000   1.0000
     1.0000   1.0000   1.0000   1.0000   1.0000   1.0000   1.0000   1.0000
     1.0000   1.0000   1.0000   1.0000   1.0000   1.0000   1.0000   1.0000
     1.0000   1.0000   1.0000   1.0000   1.0000   1.0000   1.0000   1.0000
     1.0000   1.0000   1.0000   1.0000   1.0000   1.0000   1.0000   1.0000
     1.0000   1.0000   1.0000   1.0000   1.0000   1.0000   1.0000   1.0000
     1.0000   1.0000   1.0000   1.0000   1.0000   1.0000   1.0000   1.0000
     1.0000   1.0000   1.0000   1.0000   1.0000   1.0000   1.0000   1.0000
     1.0000   1.0000   1.0000   1.0000   1.0000   1.0000   1.0000   1.0000
     1.0000   1.0000   1.0000   1.0000   1.0000   1.0000   1.0000   1.0000
     1.0000   1.0000   1.0000   1.0000   1.0000   1.0000   1.0000   1.0000
     1.0000   1.0000   1.0000   1.0000   1.0000   1.0000   1.0000   1.0000
     1.0000   1.0000   1.0000   1.0000   1.0000   1.0000   1.0000   1.0000
     1.0000   1.0000   1.0000   1.0000   1.0000   1.0000   1.0000   1.0000
     1.0000   1.0000   1.0000   1.0000   1.0000   1.0000   1.0000   1.0000
     1.0000   1.0000   1.0000   1.0000   1.0000   1.0000   1.0000   1.0001
     1.0001   1.0001   1.0001   1.0001   1.0001   1.0001   1.0001   1.0001
     1.0001   1.0001   1.0001   1.0001   1.0001   1.0001   1.0001   1.0001
     1.0001   1.0001   1.0001   1.0001   1.0001   1.0001   1.0004   1.0005
     1.0005   1.0024   1.0028   1.0028   1.0028   1.0029   1.0029   1.0031
     1.0032   1.0033   1.0033   1.0033   1.0034   1.0069   1.0104   1.0144
     1.0150   1.0150   1.0152   1.0152   1.0155   1.0157   1.0157   1.0158
     1.0158   1.0269   1.0269   1.0271   1.0289   1.0290   1.0296   1.0316
     1.0317   1.0319   1.0320   1.0322   1.0322   1.0323   1.0327   1.0340
     1.0341   1.0345   1.0346   1.0349   1.0350   1.0351   1.0351   1.0352
     1.0352   1.0352   1.0353   1.0353   1.0353   1.0353   1.0354   1.0354
     1.0354   1.0354   1.0354   1.0354   1.0354   1.0115   0.9977   0.9659
     0.9632   0.9630   0.9627   0.9606   0.9606   0.9599   0.9597   0.9596
     0.9594   0.9474   0.9384   0.9346   0.9333   0.9329   0.9222   0.8941
     0.8938   0.8932   0.8912   0.8910   0.8871   0.8851   0.8838   0.8836
     0.8835   0.8834   0.8832   0.8828   0.8822   0.8820   0.8818   0.8805
     0.8799   0.2770   0.2764   0.2678   0.2661   0.2616   0.2490  -0.0265
    -0.0311  -0.0354  -0.0353  -0.0353  -0.0349  -0.0338  -0.0337  -0.0334
    -0.0332  -0.0330  -0.0328  -0.0328  -0.0326  -0.0326  -0.0326  -0.0326
    -0.0325  -0.0325  -0.0325  -0.0325  -0.0325  -0.0324  -0.0324  -0.0279
    -0.0232  -0.0171  -0.0171  -0.0171  -0.0171  -0.0146  -0.0146  -0.0145
    -0.0139  -0.0139  -0.0136  -0.0135  -0.0122  -0.0120  -0.0118  -0.0116
    -0.0116  -0.0116  -0.0115  -0.0115  -0.0115  -0.0114  -0.0114  -0.0114
    -0.0113  -0.0113  -0.0113  -0.0113  -0.0113  -0.0081

          k = 0.0000 0.0000 0.2000 (123202 PWs)   bands (ev):

    -3.3348  -3.0324  -2.8280  -2.7101  -2.6768  -2.6760  -2.5205  -2.4170
    -2.3784  -2.3412  -2.3403  -2.1955  -2.1687  -2.1208  -2.1174  -1.9785
    -1.9291  -1.8949  -1.8939  -1.8250  -1.8183  -1.7863  -1.7831  -1.4879
    -1.4028  -1.4012  -1.3419  -1.3385  -1.1291  -1.0891  -1.0102  -1.0091
    -0.9582  -0.9190  -0.8955  -0.8946  -0.7777  -0.7302  -0.6785  -0.6777
    -0.6013  -0.5717  -0.5247  -0.4736  -0.4682  -0.4586  -0.4523  -0.4523
    -0.4517  -0.3855  -0.3667  -0.3456  -0.3428  -0.2846  -0.2721  -0.2373
    -0.2362  -0.1768  -0.1658  -0.1387  -0.1366  -0.1275  -0.1217  -0.1217
    -0.1212  -0.0662  -0.0252  -0.0127  -0.0125   0.2289   0.2582   0.3003
     0.3031   0.3116   0.3179   0.3179   0.3184   0.4931   0.5139   0.5331
     0.5359   0.6948   0.7122   0.7507   0.7524   1.0425   1.0774   1.1481
     1.1680   1.1720   1.2297   1.2420   1.2861   1.2883   1.2951   1.3021
     1.3021   1.3026   1.4576   1.4825   1.4997   1.5034   1.5636   1.5707
     1.5898   1.6126   1.6201   1.6237   1.6245   1.6249   1.6881   1.7091
     1.7109   1.7265   1.8860   1.9158   1.9318   1.9367   1.9969   2.0274
     2.0328   2.0505   2.0967   2.0998   2.1236   2.1472   2.1512   2.1529
     2.1629   2.1644   2.1666   2.1706   2.1707   2.1713   2.2266   2.2409
     2.2451   2.2600   2.2606   2.2652   2.2714   2.2729   2.3563   2.4448
     2.4669   2.4686   2.4834   2.5428   2.5645   2.5740   2.5773   2.5821
     2.5892   2.5956   2.5970   2.8352   2.8792   2.8948   2.8987   2.9025
     2.9027   2.9126   2.9131   2.9712   2.9949   3.0009   3.0133   3.0137
     3.0199   3.0261   3.0276   3.1943   3.2062   3.2406   3.2427   3.3918
     3.4034   3.4290   3.4342   3.4387   3.4449   3.4490   3.4528   3.6832
     3.6915   3.7318   3.7394   3.7513   3.7662   3.7688   3.7735   3.7736
     3.7741   3.7878   3.7887   3.8410   3.8447   3.8535   3.8622   3.8722
     3.8766   3.8841   3.8841   3.9417   3.9547   3.9575   3.9703   3.9710
     3.9769   3.9819   3.9837   4.1508   4.1555   4.1631   4.1722   4.1857
     4.1885   4.1953   4.1953   4.2522   4.2887   4.2925   4.3069   4.4639
     4.4678   4.4787   4.5112   4.5128   4.5911   4.5971   4.6266   4.6268
     4.6447   4.6464   4.6546   4.6549   4.7923   4.8282   4.8313   4.8515
     4.8583   4.8607   4.8678   4.8681   4.9056   4.9064   4.9366   4.9974
     5.0175   5.0177   5.0181   5.0242   5.0636   5.0659   5.0694   5.0732
     5.0741   5.0743   5.2028   5.2031   5.3386   5.3510   5.3705   5.3777
     5.3950   5.4070   5.4281   5.4314   5.4862   5.5054   5.5298   5.5333
     5.5497   5.5583   5.5742   5.5774   5.5891   5.5948   5.6027   5.6031
     5.6248   5.6283   5.7184   5.7239   5.7389   5.7417   5.8383   5.8662
     5.8685   5.8780   6.1240   6.1241   6.1254   6.1519   6.1525   6.2154
     6.3214   6.3502   6.3743   6.3888   6.3934   6.4140   6.4178   6.4337
     6.4356   6.4389   6.4412   6.4429   6.4439   6.4450   6.4500   6.4501
     6.4945   6.5004   6.5015   6.5063   6.5211   6.5411   6.5449   6.5456
     6.5544   6.5604   6.5765   6.5767   6.6000   6.6181   6.6414   6.6416
     6.6466   6.7041   6.7433   6.7505   6.7533   6.8245   6.8279   6.8309
     6.8427   6.8727   6.8824   6.8877   6.8921   6.9350   6.9585   6.9652
     6.9668   6.9676   6.9709   7.0502   7.0506   7.0609   7.0647   7.0820
     7.0847   7.0985   7.1055   7.1077   7.1122   7.1152   7.1158   7.1162
     7.1538   7.1738   7.1759   7.2336   7.2496   7.2515   7.2638   7.2774
     7.2796   7.2880   7.2920   7.3041   7.3643   7.3708   7.3812   7.3889
     7.3907   7.5224   7.5678   7.5793   7.5832   7.6336   7.6460   7.6583
     7.6668   7.6709   7.6714   7.6890   7.6900   7.6949   7.6988   7.7011
     7.7031   7.7321   7.7645   7.7771   7.7794   7.7941   7.8245   7.8901
     7.8903   7.9111   7.9128   7.9629   7.9679   7.9935   8.0001   8.0170
     8.0179   8.0247   8.0248   8.1678   8.1733   8.1920   8.1983   8.2152
     8.2172   8.2184   8.2188   8.4455   8.5131   8.5243   8.5282   8.6123
     8.6205   8.6226   8.6235   8.6431   8.6470   8.6701   8.6711   8.6831
     8.6855   8.7210   8.7242   8.8781   8.9295   8.9325   8.9421   9.0328
     9.0367   9.0403   9.0491   9.0519   9.0608   9.0684   9.0692   9.1305
     9.1377   9.1459   9.1563   9.1604   9.1846   9.1956   9.2045   9.2200
     9.2217   9.2315   9.2325   9.2510   9.2553   9.2911

     occupation numbers 
[...]
     atom   75 type  2   force =     0.00000001   -0.00000001   -0.00000000
     atom   76 type  2   force =     0.00000001   -0.00000001    0.00000008
     atom   77 type  2   force =    -0.00000008    0.00000003    0.00000012
     atom   78 type  2   force =    -0.00000006    0.00000000    0.00000003
     atom   79 type  2   force =    -0.00000016    0.00000004    0.00000002
     atom   80 type  2   force =    -0.00000016   -0.00000003    0.00000011
     atom   81 type  2   force =    -0.00000012   -0.00000013    0.00000001
     atom   82 type  2   force =    -0.00000004   -0.00000004    0.00000001
     atom   83 type  2   force =    -0.00000011   -0.00000004   -0.00000003
     atom   84 type  2   force =    -0.00000003   -0.00000011   -0.00000003
     atom   85 type  2   force =    -0.00000005   -0.00000006   -0.00000010
     atom   86 type  2   force =    -0.00000001   -0.00000002   -0.00000001
     atom   87 type  2   force =     0.00000001    0.00000000   -0.00000001
     atom   88 type  2   force =    -0.00000000    0.00000001   -0.00000001
     atom   89 type  2   force =     0.00000002    0.00000003   -0.00000000
     atom   90 type  2   force =     0.00000003    0.00000003   -0.00000000
     atom   91 type  2   force =     0.00000002    0.00000001    0.00000001
     atom   92 type  2   force =     0.00000000    0.00000001    0.00000000
     atom   93 type  2   force =    -0.00000004   -0.00000005    0.00000009
     atom   94 type  2   force =     0.00000001   -0.00000001   -0.00000000
     atom   95 type  2   force =    -0.00000010   -0.00000003    0.00000003
     atom   96 type  2   force =    -0.00000003   -0.00000011    0.00000004
     atom   97 type  2   force =     0.00000003   -0.00000006    0.00000001
     atom   98 type  2   force =     0.00000003   -0.00000002    0.00000000
     atom   99 type  2   force =     0.00000002   -0.00000002   -0.00000000
     atom  100 type  2   force =     0.00000002    0.00000002    0.00000003
     atom  101 type  2   force =     0.00000000   -0.00000001    0.00000003
     atom  102 type  2   force =     0.00000002    0.00000001    0.00000003
     atom  103 type  2   force =     0.00000001    0.00000002    0.00000003
     atom  104 type  2   force =    -0.00000001    0.00000001    0.00000004
     atom  105 type  2   force =    -0.00000000    0.00000004   -0.00000001
     atom  106 type  2   force =     0.00000000    0.00000000   -0.00000000
     atom  107 type  2   force =     0.00000002    0.00000001   -0.00000003
     atom  108 type  2   force =     0.00000001    0.00000001   -0.00000005
     atom  109 type  2   force =     0.00000001   -0.00000001   -0.00000003
     atom  110 type  2   force =     0.00000001   -0.00000000   -0.00000003
     atom  111 type  2   force =     0.00000003   -0.00000002    0.00000000
     atom  112 type  2   force =     0.00000002    0.00000002   -0.00000002
     atom  113 type  2   force =    -0.00000004    0.00000011   -0.00000000
     atom  114 type  2   force =    -0.00000012    0.00000005    0.00000001
     atom  115 type  2   force =    -0.00000001    0.00000002    0.00000003
     atom  116 type  2   force =    -0.00000011    0.00000012   -0.00000004
     atom  117 type  2   force =    -0.00000002    0.00000004    0.00000002
     atom  118 type  2   force =    -0.00000003    0.00000002    0.00000001
     atom  119 type  2   force =     0.00000001   -0.00000000    0.00000002
     atom  120 type  2   force =     0.00000001   -0.00000001   -0.00000004
     atom  121 type  2   force =     0.00000001   -0.00000004   -0.00000001
     atom  122 type  2   force =     0.00000004   -0.00000001   -0.00000001
     atom  123 type  2   force =     0.00000001   -0.00000001   -0.00000004
     atom  124 type  2   force =     0.00000001   -0.00000000    0.00000003
     atom  125 type  2   force =    -0.00000002    0.00000003   -0.00000001
     atom  126 type  2   force =    -0.00000004    0.00000002   -0.00000002
     atom  127 type  2   force =    -0.00000003    0.00000001   -0.00000001
     atom  128 type  2   force =    -0.00000013    0.00000012    0.00000005
     atom  129 type  2   force =    -0.00000007    0.00000001    0.00000003
     atom  130 type  2   force =     0.00000007    0.00000002    0.00000002
     atom  131 type  2   force =     0.00000005   -0.00000000    0.00000004
     atom  132 type  2   force =    -0.00000006    0.00000001    0.00000003
     atom  133 type  2   force =    -0.00000002    0.00000000    0.00000003
     atom  134 type  2   force =     0.00000003    0.00000000    0.00000004
     atom  135 type  2   force =    -0.00000001    0.00000002    0.00000003
     atom  136 type  2   force =     0.00000002   -0.00000002    0.00000003
     atom  137 type  2   force =     0.00000002   -0.00000001   -0.00000001
     atom  138 type  2   force =    -0.00000000    0.00000000   -0.00000001
     atom  139 type  2   force =    -0.00000002    0.00000002   -0.00000005
     atom  140 type  2   force =     0.00000002    0.00000000   -0.00000003
     atom  141 type  2   force =    -0.00000003    0.00000001   -0.00000005
     atom  142 type  2   force =     0.00000002    0.00000002   -0.00000005
     atom  143 type  2   force =     0.00000007    0.00000001   -0.00000002
     atom  144 type  2   force =    -0.00000006    0.00000003   -0.00000003
     atom  145 type  2   force =    -0.00000005    0.00000003    0.00000001
     atom  146 type  2   force =     0.00000001    0.00000002    0.00000001
     atom  147 type  2   force =     0.00000003    0.00000002    0.00000002
     atom  148 type  2   force =    -0.00000001    0.00000001   -0.00000000
     atom  149 type  2   force =    -0.00000001   -0.00000000    0.00000001
     atom  150 type  2   force =     0.00000001    0.00000001    0.00000003
     atom  151 type  2   force =     0.00000001   -0.00000000    0.00000003
     atom  152 type  2   force =     0.00000003    0.00000002    0.00000003
     atom  153 type  2   force =     0.00000004    0.00000000    0.00000000
     atom  154 type  2   force =     0.00000000    0.00000001   -0.00000000
     atom  155 type  2   force =     0.00000001    0.00000001   -0.00000003
     atom  156 type  2   force =     0.00000002    0.00000001   -0.00000002
     atom  157 type  2   force =    -0.00000001    0.00000001   -0.00000003
     atom  158 type  2   force =     0.00000000    0.00000001   -0.00000003
     atom  159 type  2   force =     0.00000003    0.00000003   -0.00000002
     atom  160 type  2   force =    -0.00000001    0.00000002   -0.00000000
     atom  161 type  2   force =     0.00000000   -0.00000001    0.00000000
     atom  162 type  2   force =    -0.00000002   -0.00000003    0.00000002
     atom  163 type  2   force =    -0.00000001   -0.00000001    0.00000000
     atom  164 type  2   force =     0.00000001   -0.00000002    0.00000002
     atom  165 type  2   force =     0.00000002    0.00000001    0.00000002
     atom  166 type  2   force =    -0.00000002   -0.00000000    0.00000003
     atom  167 type  2   force =     0.00000000   -0.00000001    0.00000002
     atom  168 type  2   force =     0.00000000    0.00000000    0.00000002
     atom  169 type  2   force =     0.00000001    0.00000000   -0.00000000
     atom  170 type  2   force =    -0.00000002   -0.00000002   -0.00000002
     atom  171 type  2   force =    -0.00000001   -0.00000002   -0.00000003
     atom  172 type  2   force =    -0.00000001   -0.00000001   -0.00000004
     atom  173 type  2   force =     0.00000001   -0.00000001   -0.00000002
     atom  174 type  2   force =    -0.00000001   -0.00000003   -0.00000003
     atom  175 type  2   force =    -0.00000001   -0.00000001    0.00000000
     atom  176 type  2   force =     0.00000000   -0.00000004    0.00000000
     atom  177 type  2   force =    -0.00000000   -0.00000003    0.00000002
     atom  178 type  2   force =     0.00000006   -0.00000001    0.00000002
     atom  179 type  2   force =     0.00000000   -0.00000002    0.00000003
     atom  180 type  2   force =    -0.00000002   -0.00000001    0.00000005
     atom  181 type  2   force =     0.00000000   -0.00000001    0.00000004
     atom  182 type  2   force =    -0.00000000   -0.00000001    0.00000002
     atom  183 type  2   force =    -0.00000003   -0.00000001    0.00000001
     atom  184 type  2   force =    -0.00000001   -0.00000001    0.00000003
     atom  185 type  2   force =    -0.00000001    0.00000001   -0.00000001
     atom  186 type  2   force =    -0.00000004    0.00000001   -0.00000001
     atom  187 type  2   force =    -0.00000003   -0.00000001   -0.00000004
     atom  188 type  2   force =    -0.00000001   -0.00000001   -0.00000005
     atom  189 type  2   force =    -0.00000002   -0.00000001   -0.00000005
     atom  190 type  2   force =     0.00000000    0.00000000   -0.00000004
     atom  191 type  2   force =     0.00000000   -0.00000002   -0.00000000
     atom  192 type  2   force =    -0.00000004   -0.00000001   -0.00000003
     atom  193 type  2   force =     0.00000021    0.00000002    0.00000002
     atom  194 type  2   force =     0.00000018   -0.00000008    0.00000002
     atom  195 type  2   force =     0.00000016    0.00000005   -0.00000010
     atom  196 type  2   force =     0.00000015   -0.00000002   -0.00000001
     atom  197 type  2   force =     0.00000006    0.00000003   -0.00000003
     atom  198 type  2   force =     0.00000007   -0.00000002   -0.00000012
     atom  199 type  2   force =    -0.00000002    0.00000002   -0.00000007
     atom  200 type  2   force =    -0.00000002    0.00000001   -0.00000001
     atom  201 type  2   force =    -0.00000005    0.00000003   -0.00000002
     atom  202 type  2   force =    -0.00000005    0.00000003   -0.00000001
     atom  203 type  2   force =    -0.00000001    0.00000002    0.00000006
     atom  204 type  2   force =    -0.00000001    0.00000002   -0.00000000
     atom  205 type  2   force =     0.00000006    0.00000003    0.00000003
     atom  206 type  2   force =     0.00000007   -0.00000001    0.00000011
     atom  207 type  2   force =     0.00000016    0.00000004    0.00000011
     atom  208 type  2   force =     0.00000015   -0.00000002    0.00000002
     atom  209 type  2   force =     0.00000010   -0.00000002    0.00000001
     atom  210 type  2   force =     0.00000003   -0.00000010    0.00000001
     atom  211 type  2   force =     0.00000011   -0.00000011   -0.00000004
     atom  212 type  2   force =     0.00000002   -0.00000002    0.00000000
     atom  213 type  2   force =     0.00000003   -0.00000002    0.00000000
     atom  214 type  2   force =     0.00000001   -0.00000003   -0.00000001
     atom  215 type  2   force =    -0.00000002   -0.00000001   -0.00000004
     atom  216 type  2   force =    -0.00000002    0.00000001    0.00000001
     atom  217 type  2   force =    -0.00000004    0.00000000   -0.00000000
     atom  218 type  2   force =    -0.00000002    0.00000004    0.00000000
     atom  219 type  2   force =    -0.00000001   -0.00000000    0.00000003
     atom  220 type  2   force =    -0.00000002   -0.00000000   -0.00000003
     atom  221 type  2   force =     0.00000003   -0.00000001   -0.00000000
     atom  222 type  2   force =     0.00000001   -0.00000004   -0.00000000
     atom  223 type  2   force =     0.00000010   -0.00000010    0.00000005
     atom  224 type  2   force =     0.00000001   -0.00000002    0.00000000
     atom  225 type  2   force =    -0.00000002   -0.00000003    0.00000001
     atom  226 type  2   force =    -0.00000002    0.00000003    0.00000000
     atom  227 type  2   force =    -0.00000002   -0.00000005    0.00000002
     atom  228 type  2   force =    -0.00000003   -0.00000000    0.00000001
     atom  229 type  2   force =    -0.00000002   -0.00000002    0.00000004
     atom  230 type  2   force =    -0.00000001   -0.00000000    0.00000004
     atom  231 type  2   force =    -0.00000000   -0.00000001    0.00000003
     atom  232 type  2   force =    -0.00000002   -0.00000002    0.00000002
     atom  233 type  2   force =    -0.00000001   -0.00000001   -0.00000001
     atom  234 type  2   force =     0.00000000   -0.00000003   -0.00000001
     atom  235 type  2   force =     0.00000000   -0.00000001   -0.00000004
     atom  236 type  2   force =    -0.00000000   -0.00000003   -0.00000003
     atom  237 type  2   force =    -0.00000002   -0.00000002   -0.00000003
     atom  238 type  2   force =     0.00000000   -0.00000001   -0.00000003
     atom  239 type  2   force =    -0.00000002   -0.00000004   -0.00000002
     atom  240 type  2   force =    -0.00000001   -0.00000002   -0.00000000
     atom  241 type  2   force =     0.00000004    0.00000004    0.00000002
     atom  242 type  2   force =     0.00000013    0.00000015    0.00000000
     atom  243 type  2   force =     0.00000003    0.00000011   -0.00000003
     atom  244 type  2   force =     0.00000009    0.00000005   -0.00000002
     atom  245 type  2   force =    -0.00000002    0.00000000    0.00000001
     atom  246 type  2   force =     0.00000005    0.00000007   -0.00000009
     atom  247 type  2   force =     0.00000000   -0.00000001    0.00000001
     atom  248 type  2   force =    -0.00000002    0.00000001    0.00000000
     atom  249 type  2   force =    -0.00000001   -0.00000002   -0.00000002
     atom  250 type  2   force =    -0.00000002   -0.00000002   -0.00000001
     atom  251 type  2   force =     0.00000001   -0.00000001   -0.00000001
     atom  252 type  2   force =    -0.00000001    0.00000000   -0.00000001
     atom  253 type  2   force =     0.00000001    0.00000000   -0.00000001
     atom  254 type  2   force =     0.00000007    0.00000006    0.00000009
     atom  255 type  2   force =     0.00000005    0.00000011    0.00000003
     atom  256 type  2   force =     0.00000011    0.00000005    0.00000004

     Total force =     0.005903     Total SCF correction =     0.000001


     Computing stress (Cartesian axis) and pressure

          total   stress  (Ry/bohr**3)                   (kbar)     P=  -10.87
  -0.00007355   0.00000032   0.00000000        -10.82      0.05      0.00
   0.00000032  -0.00007354  -0.00000000          0.05    -10.82     -0.00
   0.00000000  -0.00000000  -0.00007454          0.00     -0.00    -10.96

     kinetic stress (kbar)   1443.58      0.03      0.00
                                0.03   1443.58     -0.00
                                0.00     -0.00   1443.51

     local   stress (kbar)    623.40     -2.19      0.00
                               -2.19    623.40      0.00
                                0.00      0.00    625.80

     nonloc. stress (kbar)   1044.21     -0.00     -0.00
                               -0.00   1044.21      0.00
                               -0.00      0.00   1044.23

     hartree stress (kbar)      5.38      1.02      0.00
                                1.02      5.38     -0.00
                                0.00     -0.00      4.23

     exc-cor stress (kbar)    524.88     -0.00     -0.00
                               -0.00    524.88     -0.00
                               -0.00     -0.00    524.88

     corecor stress (kbar)  -1298.31     -0.00      0.00
                               -0.00  -1298.31      0.00
                                0.00      0.00  -1298.31

     ewald   stress (kbar)  -2353.96      1.19      0.00
                                1.19  -2353.96      0.00
                                0.00      0.00  -2355.30

     hubbard stress (kbar)      0.00      0.00      0.00
                                0.00      0.00      0.00
                                0.00      0.00      0.00

     london  stress (kbar)      0.00      0.00      0.00
                                0.00      0.00      0.00
                                0.00      0.00      0.00

     DFT-D3  stress (kbar)      0.00      0.00      0.00
                                0.00      0.00      0.00
                                0.00      0.00      0.00

     XDM     stress (kbar)      0.00      0.00      0.00
                                0.00      0.00      0.00
                                0.00      0.00      0.00

     dft-nl  stress (kbar)      0.00      0.00      0.00
                                0.00      0.00      0.00
                                0.00      0.00      0.00

     TS-vdW  stress (kbar)      0.00      0.00      0.00
                                0.00      0.00      0.00
                                0.00      0.00      0.00



     Writing output data file aiida.save/
 
     init_run     :    195.66s CPU    198.09s WALL (       1 calls)
     electrons    :   7944.73s CPU   8006.57s WALL (       1 calls)
     forces       :     94.05s CPU     95.11s WALL (       1 calls)
     stress       :   1187.05s CPU   1188.73s WALL (       1 calls)

     Called by init_run:
     wfcinit      :    184.84s CPU    186.86s WALL (       1 calls)
     wfcinit:atom :      0.34s CPU      0.61s WALL (       2 calls)
     wfcinit:wfcr :    182.32s CPU    183.20s WALL (       2 calls)
     potinit      :      2.25s CPU      2.40s WALL (       1 calls)
     hinit0       :      2.63s CPU      2.73s WALL (       1 calls)

     Called by electrons:
     c_bands      :   6813.84s CPU   6862.59s WALL (      30 calls)
     sum_band     :   1040.28s CPU   1045.59s WALL (      30 calls)
     v_of_rho     :     43.56s CPU     46.26s WALL (      30 calls)
     v_h          :      4.46s CPU      4.47s WALL (      30 calls)
     v_xc         :     41.64s CPU     44.42s WALL (      32 calls)
     newd         :      9.54s CPU     12.31s WALL (      30 calls)
     PAW_pot      :      6.41s CPU      6.42s WALL (      30 calls)
     mix_rho      :     24.76s CPU     26.98s WALL (      30 calls)

     Called by c_bands:
     init_us_2    :     95.06s CPU     95.69s WALL (     126 calls)
     cegterg      :   5851.07s CPU   5896.69s WALL (      61 calls)

     Called by sum_band:
     sum_band:bec :      1.73s CPU      1.73s WALL (      60 calls)
     addusdens    :      7.89s CPU     10.87s WALL (      30 calls)

     Called by *egterg:
     h_psi        :   3932.70s CPU   3948.40s WALL (     214 calls)
     s_psi        :   1202.62s CPU   1205.05s WALL (     214 calls)
     g_psi        :      4.73s CPU      4.73s WALL (     151 calls)
     cdiaghg      :    193.03s CPU    196.86s WALL (     210 calls)
     cegterg:over :    285.16s CPU    286.37s WALL (     151 calls)
     cegterg:upda :    170.07s CPU    177.87s WALL (     151 calls)
     cegterg:last :    123.15s CPU    123.21s WALL (      63 calls)
     cdiaghg:chol :      8.68s CPU      8.78s WALL (     210 calls)
     cdiaghg:inve :      4.00s CPU      4.00s WALL (     210 calls)
     cdiaghg:para :     43.89s CPU     44.71s WALL (     420 calls)

     Called by h_psi:
     h_psi:pot    :   3927.49s CPU   3935.84s WALL (     214 calls)
     h_psi:calbec :   1197.34s CPU   1197.56s WALL (     214 calls)
     vloc_psi     :   1525.12s CPU   1530.53s WALL (     214 calls)
     add_vuspsi   :   1205.03s CPU   1207.76s WALL (     214 calls)

     General routines
     calbec       :   1792.42s CPU   1792.83s WALL (     284 calls)
     fft          :     47.82s CPU     51.25s WALL (     415 calls)
     ffts         :     11.12s CPU     11.18s WALL (     400 calls)
     fftw         :   1596.36s CPU   1601.59s WALL (  156412 calls)
     interpolate  :      4.65s CPU      4.77s WALL (      30 calls)
 
     Parallel routines
     fft_scatt_xy :    543.83s CPU    545.43s WALL (  157227 calls)
     fft_scatt_yz :    320.84s CPU    323.80s WALL (  157227 calls)

     PAW routines
     PAW_pot      :      6.41s CPU      6.42s WALL (      30 calls)
 
     PWSCF        :      2h40m CPU      2h42m WALL

 
   This run was terminated on:  13:14:33  26Feb2020            

=------------------------------------------------------------------------------=
   JOB DONE.
=------------------------------------------------------------------------------=
