begin
comment uuid: 02ae6002-7269-4ef6-a207-9def8a1e2730 
lattice 7.6331373306 -0.3816568665 0.0000000000
lattice -0.3816568665 7.6331373306 0.0000000000
lattice 0.0000000000 0.0000000000 7.6522680006
atom   0.000000    0.000000   0.000000 Al  0.0   0.0  -0.0000000000  -0.0000000050  0.0000000000
atom   -0.190828    3.816569   3.826134 Al  0.0   0.0  0.0000000000  0.0000000000  0.0000000000
atom   3.816569    -0.190828   3.826134 Al  0.0   0.0  0.0000000000  0.0000000000  -0.0000000000
atom   3.625740    3.625740   0.000000 Al  0.0   0.0  0.0000000000  0.0000000000  -0.0000000000
energy -79.002825440000009
charge 0.000000000000000
end
begin
comment uuid: f49e097f-cbee-4839-81bf-81bd1d72d88f 
lattice 7.6331373306 -0.2968442295 0.0000000000
lattice -0.2968442295 7.6331373306 0.0000000000
lattice 0.0000000000 0.0000000000 7.6446987577
atom   0.000000    0.000000   0.000000 Al  0.0   0.0  -0.0000000050  -0.0000000050  0.0000000000
atom   -0.148422    3.816569   3.822349 Al  0.0   0.0  0.0000000000  0.0000000000  0.0000000000
atom   3.816569    -0.148422   3.822349 Al  0.0   0.0  -0.0000000000  0.0000000000  -0.0000000000
atom   3.668147    3.668147   0.000000 Al  0.0   0.0  0.0000000000  0.0000000000  -0.0000000000
energy -79.003940825000029
charge 0.000000000000000
end
begin
comment uuid: 7ed24f38-f7b1-40ca-a8c0-e4de8dbbc527 
lattice 7.6331373306 -0.2120315925 0.0000000000
lattice -0.2120315925 7.6331373306 0.0000000000
lattice 0.0000000000 0.0000000000 7.6390316451
atom   0.000000    0.000000   0.000000 Al  0.0   0.0  -0.0000000050  -0.0000000050  0.0000000000
atom   -0.106016    3.816569   3.819516 Al  0.0   0.0  0.0000000050  -0.0000000000  0.0000000000
atom   3.816569    -0.106016   3.819516 Al  0.0   0.0  -0.0000000000  0.0000000000  -0.0000000050
atom   3.710553    3.710553   0.000000 Al  0.0   0.0  0.0000000000  0.0000000000  0.0000000000
energy -79.004744425000013
charge 0.000000000000000
end
begin
comment uuid: e8804204-51a5-4ad6-86a2-80533c721938 
lattice 7.6331373306 -0.1272189555 0.0000000000
lattice -0.1272189555 7.6331373306 0.0000000000
lattice 0.0000000000 0.0000000000 7.6352582357
atom   0.000000    0.000000   0.000000 Al  0.0   0.0  -0.0000000050  -0.0000000050  0.0000000000
atom   -0.063609    3.816569   3.817629 Al  0.0   0.0  0.0000000050  -0.0000000000  0.0000000000
atom   3.816569    -0.063609   3.817629 Al  0.0   0.0  -0.0000000000  0.0000000050  -0.0000000050
atom   3.752959    3.752959   0.000000 Al  0.0   0.0  0.0000000000  0.0000000000  0.0000000000
energy -79.005264165000028
charge 0.000000000000000
end
begin
comment uuid: d8a16bd3-46ce-47f0-b982-1cbae46a7983 
lattice 7.6331373306 -0.0424063185 0.0000000000
lattice -0.0424063185 7.6331373306 0.0000000000
lattice 0.0000000000 0.0000000000 7.6333729285
atom   0.000000    0.000000   0.000000 Al  0.0   0.0  -0.0000000050  -0.0000000050  0.0000000000
atom   -0.021203    3.816569   3.816686 Al  0.0   0.0  0.0000000050  -0.0000000050  0.0000000050
atom   3.816569    -0.021203   3.816686 Al  0.0   0.0  -0.0000000000  0.0000000050  -0.0000000050
atom   3.795366    3.795366   0.000000 Al  0.0   0.0  -0.0000000000  0.0000000000  0.0000000000
energy -79.005519115000027
charge 0.000000000000000
end
begin
comment uuid: d4143aa4-e618-4023-ad45-59132331a948 
lattice 7.6331373306 0.0424063185 0.0000000000
lattice 0.0424063185 7.6331373306 0.0000000000
lattice 0.0000000000 0.0000000000 7.6333729285
atom   0.000000    0.000000   0.000000 Al  0.0   0.0  -0.0000000050  -0.0000000050  0.0000000000
atom   0.021203    3.816569   3.816686 Al  0.0   0.0  0.0000000050  -0.0000000050  0.0000000050
atom   3.816569    0.021203   3.816686 Al  0.0   0.0  0.0000000000  0.0000000050  -0.0000000050
atom   3.837772    3.837772   0.000000 Al  0.0   0.0  -0.0000000000  0.0000000000  0.0000000000
energy -79.005519115000027
charge 0.000000000000000
end
begin
comment uuid: ebeb9fef-6b48-4a06-925c-9d560f7ebd35 
lattice 7.6331373306 0.1272189555 0.0000000000
lattice 0.1272189555 7.6331373306 0.0000000000
lattice 0.0000000000 0.0000000000 7.6352582357
atom   0.000000    0.000000   0.000000 Al  0.0   0.0  -0.0000000050  -0.0000000050  0.0000000000
atom   0.063609    3.816569   3.817629 Al  0.0   0.0  0.0000000050  -0.0000000050  0.0000000000
atom   3.816569    0.063609   3.817629 Al  0.0   0.0  0.0000000000  0.0000000050  -0.0000000050
atom   3.880178    3.880178   0.000000 Al  0.0   0.0  -0.0000000000  0.0000000000  0.0000000000
energy -79.005264165000028
charge 0.000000000000000
end
begin
comment uuid: 0dece684-7d17-4558-8e27-84fe8fa484bc 
lattice 7.6331373306 0.2120315925 0.0000000000
lattice 0.2120315925 7.6331373306 0.0000000000
lattice 0.0000000000 0.0000000000 7.6390316451
atom   0.000000    0.000000   0.000000 Al  0.0   0.0  -0.0000000050  -0.0000000000  0.0000000000
atom   0.106016    3.816569   3.819516 Al  0.0   0.0  0.0000000050  -0.0000000050  0.0000000000
atom   3.816569    0.106016   3.819516 Al  0.0   0.0  0.0000000000  0.0000000050  -0.0000000050
atom   3.922584    3.922584   0.000000 Al  0.0   0.0  -0.0000000000  0.0000000000  0.0000000000
energy -79.004744425000013
charge 0.000000000000000
end
begin
comment uuid: bfa17520-3123-43f9-8100-5a963da7ee01 
lattice 7.6331373306 0.2968442295 0.0000000000
lattice 0.2968442295 7.6331373306 0.0000000000
lattice 0.0000000000 0.0000000000 7.6446987577
atom   0.000000    0.000000   0.000000 Al  0.0   0.0  -0.0000000050  -0.0000000000  0.0000000000
atom   0.148422    3.816569   3.822349 Al  0.0   0.0  0.0000000050  -0.0000000050  0.0000000000
atom   3.816569    0.148422   3.822349 Al  0.0   0.0  0.0000000000  0.0000000050  -0.0000000050
atom   3.964991    3.964991   0.000000 Al  0.0   0.0  -0.0000000000  0.0000000000  0.0000000000
energy -79.003940825000029
charge 0.000000000000000
end
begin
comment uuid: af42101f-2d08-40be-9dfd-ec17f5d61ed4 
lattice 7.6331373306 0.3816568665 0.0000000000
lattice 0.3816568665 7.6331373306 0.0000000000
lattice 0.0000000000 0.0000000000 7.6522680006
atom   0.000000    0.000000   0.000000 Al  0.0   0.0  -0.0000000050  -0.0000000000  0.0000000000
atom   0.190828    3.816569   3.826134 Al  0.0   0.0  0.0000000050  -0.0000000050  0.0000000000
atom   3.816569    0.190828   3.826134 Al  0.0   0.0  0.0000000000  0.0000000050  -0.0000000050
atom   4.007397    4.007397   0.000000 Al  0.0   0.0  -0.0000000000  0.0000000000  0.0000000000
energy -79.002825440000009
charge 0.000000000000000
end
