
     Program PWSCF v.6.3 starts on 22Feb2020 at  8:35: 5 

     This program is part of the open-source Quantum ESPRESSO suite
     for quantum simulation of materials; please cite
         "P. Giannozzi et al., J. Phys.:Condens. Matter 21 395502 (2009);
         "P. Giannozzi et al., J. Phys.:Condens. Matter 29 465901 (2017);
          URL http://www.quantum-espresso.org", 
     in publications or presentations arising from this work. More details at
     http://www.quantum-espresso.org/quote

 *** WARNING: using old-style file format, will disappear from next version ***

     Parallel version (MPI & OpenMP), running on      36 processor cores
     Number of MPI processes:                36
     Threads/MPI process:                     1

     MPI processes distributed on     1 nodes
     K-points division:     npool     =       4
     R & G space division:  proc/nbgrp/npool/nimage =       9
     Reading input from aiida.in
Warning: card &IONS ignored
Warning: card   !PRESS_CONV_THR = 0.05                 ! JUST FOR VOLUME RELAXATIONS ignored
Warning: card / ignored

     Current dimensions of program PWSCF are:
     Max number of different atomic species (ntypx) = 10
     Max number of k-points (npk) =  40000
     Max angular momentum in pseudopotentials (lmaxx) =  3
               file Mg.pbe-n-kjpaw_psl.0.3.0.UPF: wavefunction(s)  3S renormalized
               file Al.pbe-n-kjpaw_psl.1.0.0.UPF: wavefunction(s)  3S 3P renormalized

     Subspace diagonalization in iterative solution of the eigenvalue problem:
     one sub-group per band group will be used
     scalapack distributed-memory algorithm (size of sub-group:  2*  2 procs)

     Found symmetry operation: I + ( -0.5000  0.5000  0.0000)
     This is a supercell, fractional translations are disabled
 
     Parallelization info
     --------------------
     sticks:   dense  smooth     PW     G-vecs:    dense   smooth      PW
     Min         786     314     91                41381    10464    1637
     Max         787     315     92                41383    10467    1639
     Sum        7077    2831    827               372439    94191   14741
 


     bravais-lattice index     =            0
     lattice parameter (alat)  =      28.9726  a.u.
     unit-cell volume          =    2756.6159 (a.u.)^3
     number of atoms/cell      =           22
     number of atomic types    =            3
     number of electrons       =        64.00
     number of Kohn-Sham states=           38
     kinetic-energy cutoff     =      40.0000  Ry
     charge density cutoff     =     400.0000  Ry
     convergence threshold     =      1.0E-12
     mixing beta               =       0.4000
     number of iterations used =            8  local-TF  mixing
     Exchange-correlation      = SLA PW PBX PBC ( 1  4  3  4 0 0)

     celldm(1)=  28.972645  celldm(2)=   0.000000  celldm(3)=   0.000000
     celldm(4)=   0.000000  celldm(5)=   0.000000  celldm(6)=   0.000000

     crystal axes: (cart. coord. in units of alat)
               a(1) = (   0.962426   0.000000  -0.271544 )  
               a(2) = (   0.000000   0.264424   0.000000 )  
               a(3) = (  -0.001798   0.000000   0.445900 )  

     reciprocal axes: (cart. coord. in units 2 pi/alat)
               b(1) = (  1.040225  0.000000  0.004195 )  
               b(2) = (  0.000000  3.781803  0.000000 )  
               b(3) = (  0.633475  0.000000  2.245208 )  


     PseudoPot. # 1 for Mg read from file:
     /users/aglensk/Dropbox/Albert/scripts/dotfiles/scripts/potentials/quantum_espresso/pseudo_SSSPefV1.1_alalloy/Mg.pbe-n-kjpaw_psl.0.3.0.UPF
     MD5 check sum: 24ecedc7f3e3cbe212e682f4413594e4
     Pseudo is Projector augmented-wave + core cor, Zval =  2.0
     Generated using "atomic" code by A. Dal Corso v.5.0.99 svn rev. 10869
     Shape of augmentation charge: PSQ
     Using radial grid of 1129 points,  4 beta functions with: 
                l(1) =   0
                l(2) =   0
                l(3) =   1
                l(4) =   1
     Q(r) pseudized with 0 coefficients 


     PseudoPot. # 2 for Si read from file:
     /users/aglensk/Dropbox/Albert/scripts/dotfiles/scripts/potentials/quantum_espresso/pseudo_SSSPefV1.1_alalloy/Si.pbe-n-rrkjus_psl.1.0.0.UPF
     MD5 check sum: 0b0bb1205258b0d07b9f9672cf965d36
     Pseudo is Ultrasoft + core correction, Zval =  4.0
     Generated using "atomic" code by A. Dal Corso v.5.1
     Using radial grid of 1141 points,  6 beta functions with: 
                l(1) =   0
                l(2) =   0
                l(3) =   1
                l(4) =   1
                l(5) =   2
                l(6) =   2
     Q(r) pseudized with 0 coefficients 


     PseudoPot. # 3 for Al read from file:
     /users/aglensk/Dropbox/Albert/scripts/dotfiles/scripts/potentials/quantum_espresso/pseudo_SSSPefV1.1_alalloy/Al.pbe-n-kjpaw_psl.1.0.0.UPF
     MD5 check sum: cfc449ca30b5f3223ec38ddd88ac046d
     Pseudo is Projector augmented-wave + core cor, Zval =  3.0
     Generated using "atomic" code by A. Dal Corso v.5.1
     Shape of augmentation charge: PSQ
     Using radial grid of 1135 points,  6 beta functions with: 
                l(1) =   0
                l(2) =   0
                l(3) =   1
                l(4) =   1
                l(5) =   2
                l(6) =   2
     Q(r) pseudized with 0 coefficients 


     atomic species   valence    mass     pseudopotential
        Mg             2.00    24.30500     Mg( 1.00)
        Si             4.00    28.08500     Si( 1.00)
        Al             3.00    26.98154     Al( 1.00)

     No symmetry found


                                    s                        frac. trans.

      isym =  1     identity                                     

 cryst.   s( 1) = (     1          0          0      )
                  (     0          1          0      )
                  (     0          0          1      )

 cart.    s( 1) = (  1.0000000  0.0000000 -0.0000000 )
                  (  0.0000000  1.0000000  0.0000000 )
                  (  0.0000000  0.0000000  1.0000000 )


   Cartesian axes

     site n.     atom                  positions (alat units)
         1           Mg  tau(   1) = (  -0.0004180   0.0000000   0.4404169  )
         2           Mg  tau(   2) = (   0.0723178   0.1322121   0.1344848  )
         3           Mg  tau(   3) = (   0.1487185   0.1322121   0.3597830  )
         4           Mg  tau(   4) = (   0.3334655   0.0000000  -0.0606367  )
         5           Mg  tau(   5) = (   0.4098460   0.0000000   0.1646858  )
         6           Si  tau(   6) = (   0.0558091   0.0000000   0.2723108  )
         7           Si  tau(   7) = (   0.1796369   0.0000000   0.0433154  )
         8           Al  tau(   8) = (   0.2089131   0.0000000   0.2108647  )
         9           Al  tau(   9) = (   0.2732534   0.1322121   0.0882831  )
        10           Si  tau(  10) = (   0.3025302   0.1322121   0.2558290  )
        11           Si  tau(  11) = (   0.4263610   0.1322121   0.0268517  )
        12           Mg  tau(  12) = (   0.4807950   0.1322121   0.3046450  )
        13           Mg  tau(  13) = (   0.5535308   0.0000000  -0.0012871  )
        14           Mg  tau(  14) = (   0.6299315   0.0000000   0.2240110  )
        15           Mg  tau(  15) = (   0.8146785   0.1322121  -0.1964086  )
        16           Mg  tau(  16) = (   0.8910590   0.1322121   0.0289138  )
        17           Si  tau(  17) = (   0.5370221   0.1322121   0.1365389  )
        18           Si  tau(  18) = (   0.6608499   0.1322121  -0.0924565  )
        19           Al  tau(  19) = (   0.6901261   0.1322121   0.0750928  )
        20           Al  tau(  20) = (   0.7544664   0.0000000  -0.0474888  )
        21           Si  tau(  21) = (   0.7837433   0.0000000   0.1200570  )
        22           Si  tau(  22) = (   0.9075741   0.0000000  -0.1089203  )

   Crystallographic axes

     site n.     atom                  positions (cryst. coord.)
         1           Mg  tau(   1) = (  0.0014129  0.0000000  0.9885628  )
         2           Mg  tau(   2) = (  0.0757909  0.5000000  0.3477578  )
         3           Mg  tau(   3) = (  0.1562100  0.5000000  0.9019970  )
         4           Mg  tau(   4) = (  0.3466246  0.0000000  0.0751000  )
         5           Mg  tau(   5) = (  0.4270228  0.0000000  0.6293809  )
         6           Si  tau(   6) = (  0.0591964  0.0000000  0.6467481  )
         7           Si  tau(   7) = (  0.1870444  0.0000000  0.2110474  )
         8           Al  tau(   8) = (  0.2182012  0.0000000  0.6057763  )
         9           Al  tau(   9) = (  0.2846153  0.5000000  0.3713130  )
        10           Si  tau(  10) = (  0.3157727  0.5000000  0.7660345  )
        11           Si  tau(  11) = (  0.4436239  0.5000000  0.3303765  )
        12           Mg  tau(  12) = (  0.5014129  0.5000000  0.9885629  )
        13           Mg  tau(  13) = (  0.5757910  0.0000000  0.3477579  )
        14           Mg  tau(  14) = (  0.6562100  0.0000000  0.9019970  )
        15           Mg  tau(  15) = (  0.8466246  0.5000000  0.0750998  )
        16           Mg  tau(  16) = (  0.9270228  0.5000000  0.6293808  )
        17           Si  tau(  17) = (  0.5591964  0.5000000  0.6467482  )
        18           Si  tau(  18) = (  0.6870444  0.5000000  0.2110474  )
        19           Al  tau(  19) = (  0.7182012  0.5000000  0.6057762  )
        20           Al  tau(  20) = (  0.7846152  0.0000000  0.3713130  )
        21           Si  tau(  21) = (  0.8157727  0.0000000  0.7660344  )
        22           Si  tau(  22) = (  0.9436239  0.0000000  0.3303764  )

     number of k points=   782  Methfessel-Paxton smearing, width (Ry)=  0.0441
                       cart. coord. in units 2pi/alat
        k(    1) = (   0.0000000   0.0000000   0.0000000), wk =   0.0012821
        k(    2) = (   0.0487288   0.0000000   0.1727083), wk =   0.0025641
        k(    3) = (   0.0974576   0.0000000   0.3454167), wk =   0.0025641
        k(    4) = (   0.1461864   0.0000000   0.5181250), wk =   0.0025641
        k(    5) = (   0.1949153   0.0000000   0.6908333), wk =   0.0025641
        k(    6) = (   0.2436441   0.0000000   0.8635416), wk =   0.0025641
        k(    7) = (   0.2923729   0.0000000   1.0362500), wk =   0.0025641
        k(    8) = (   0.0000000   0.1890902   0.0000000), wk =   0.0025641
        k(    9) = (   0.0487288   0.1890902   0.1727083), wk =   0.0025641
        k(   10) = (   0.0974576   0.1890902   0.3454167), wk =   0.0025641
        k(   11) = (   0.1461864   0.1890902   0.5181250), wk =   0.0025641
        k(   12) = (   0.1949153   0.1890902   0.6908333), wk =   0.0025641
        k(   13) = (   0.2436441   0.1890902   0.8635416), wk =   0.0025641
        k(   14) = (   0.2923729   0.1890902   1.0362500), wk =   0.0025641
        k(   15) = (  -0.2923729   0.1890902  -1.0362500), wk =   0.0025641
        k(   16) = (  -0.2436441   0.1890902  -0.8635416), wk =   0.0025641
        k(   17) = (  -0.1949153   0.1890902  -0.6908333), wk =   0.0025641
        k(   18) = (  -0.1461864   0.1890902  -0.5181250), wk =   0.0025641
        k(   19) = (  -0.0974576   0.1890902  -0.3454167), wk =   0.0025641
        k(   20) = (  -0.0487288   0.1890902  -0.1727083), wk =   0.0025641
        k(   21) = (   0.0000000   0.3781803   0.0000000), wk =   0.0025641
        k(   22) = (   0.0487288   0.3781803   0.1727083), wk =   0.0025641
        k(   23) = (   0.0974576   0.3781803   0.3454167), wk =   0.0025641
        k(   24) = (   0.1461864   0.3781803   0.5181250), wk =   0.0025641
        k(   25) = (   0.1949153   0.3781803   0.6908333), wk =   0.0025641
        k(   26) = (   0.2436441   0.3781803   0.8635416), wk =   0.0025641
        k(   27) = (   0.2923729   0.3781803   1.0362500), wk =   0.0025641
        k(   28) = (  -0.2923729   0.3781803  -1.0362500), wk =   0.0025641
        k(   29) = (  -0.2436441   0.3781803  -0.8635416), wk =   0.0025641
        k(   30) = (  -0.1949153   0.3781803  -0.6908333), wk =   0.0025641
        k(   31) = (  -0.1461864   0.3781803  -0.5181250), wk =   0.0025641
        k(   32) = (  -0.0974576   0.3781803  -0.3454167), wk =   0.0025641
        k(   33) = (  -0.0487288   0.3781803  -0.1727083), wk =   0.0025641
        k(   34) = (   0.0000000   0.5672705   0.0000000), wk =   0.0025641
        k(   35) = (   0.0487288   0.5672705   0.1727083), wk =   0.0025641
        k(   36) = (   0.0974576   0.5672705   0.3454167), wk =   0.0025641
        k(   37) = (   0.1461864   0.5672705   0.5181250), wk =   0.0025641
        k(   38) = (   0.1949153   0.5672705   0.6908333), wk =   0.0025641
        k(   39) = (   0.2436441   0.5672705   0.8635416), wk =   0.0025641
        k(   40) = (   0.2923729   0.5672705   1.0362500), wk =   0.0025641
        k(   41) = (  -0.2923729   0.5672705  -1.0362500), wk =   0.0025641
        k(   42) = (  -0.2436441   0.5672705  -0.8635416), wk =   0.0025641
        k(   43) = (  -0.1949153   0.5672705  -0.6908333), wk =   0.0025641
        k(   44) = (  -0.1461864   0.5672705  -0.5181250), wk =   0.0025641
        k(   45) = (  -0.0974576   0.5672705  -0.3454167), wk =   0.0025641
        k(   46) = (  -0.0487288   0.5672705  -0.1727083), wk =   0.0025641
        k(   47) = (   0.0000000   0.7563607   0.0000000), wk =   0.0025641
        k(   48) = (   0.0487288   0.7563607   0.1727083), wk =   0.0025641
        k(   49) = (   0.0974576   0.7563607   0.3454167), wk =   0.0025641
        k(   50) = (   0.1461864   0.7563607   0.5181250), wk =   0.0025641
        k(   51) = (   0.1949153   0.7563607   0.6908333), wk =   0.0025641
        k(   52) = (   0.2436441   0.7563607   0.8635416), wk =   0.0025641
        k(   53) = (   0.2923729   0.7563607   1.0362500), wk =   0.0025641
        k(   54) = (  -0.2923729   0.7563607  -1.0362500), wk =   0.0025641
        k(   55) = (  -0.2436441   0.7563607  -0.8635416), wk =   0.0025641
        k(   56) = (  -0.1949153   0.7563607  -0.6908333), wk =   0.0025641
        k(   57) = (  -0.1461864   0.7563607  -0.5181250), wk =   0.0025641
        k(   58) = (  -0.0974576   0.7563607  -0.3454167), wk =   0.0025641
        k(   59) = (  -0.0487288   0.7563607  -0.1727083), wk =   0.0025641
        k(   60) = (   0.0000000   0.9454508   0.0000000), wk =   0.0025641
        k(   61) = (   0.0487288   0.9454508   0.1727083), wk =   0.0025641
        k(   62) = (   0.0974576   0.9454508   0.3454167), wk =   0.0025641
        k(   63) = (   0.1461864   0.9454508   0.5181250), wk =   0.0025641
        k(   64) = (   0.1949153   0.9454508   0.6908333), wk =   0.0025641
        k(   65) = (   0.2436441   0.9454508   0.8635416), wk =   0.0025641
        k(   66) = (   0.2923729   0.9454508   1.0362500), wk =   0.0025641
        k(   67) = (  -0.2923729   0.9454508  -1.0362500), wk =   0.0025641
        k(   68) = (  -0.2436441   0.9454508  -0.8635416), wk =   0.0025641
        k(   69) = (  -0.1949153   0.9454508  -0.6908333), wk =   0.0025641
        k(   70) = (  -0.1461864   0.9454508  -0.5181250), wk =   0.0025641
        k(   71) = (  -0.0974576   0.9454508  -0.3454167), wk =   0.0025641
        k(   72) = (  -0.0487288   0.9454508  -0.1727083), wk =   0.0025641
        k(   73) = (   0.0000000   1.1345410   0.0000000), wk =   0.0025641
        k(   74) = (   0.0487288   1.1345410   0.1727083), wk =   0.0025641
        k(   75) = (   0.0974576   1.1345410   0.3454167), wk =   0.0025641
        k(   76) = (   0.1461864   1.1345410   0.5181250), wk =   0.0025641
        k(   77) = (   0.1949153   1.1345410   0.6908333), wk =   0.0025641
        k(   78) = (   0.2436441   1.1345410   0.8635416), wk =   0.0025641
        k(   79) = (   0.2923729   1.1345410   1.0362500), wk =   0.0025641
        k(   80) = (  -0.2923729   1.1345410  -1.0362500), wk =   0.0025641
        k(   81) = (  -0.2436441   1.1345410  -0.8635416), wk =   0.0025641
        k(   82) = (  -0.1949153   1.1345410  -0.6908333), wk =   0.0025641
        k(   83) = (  -0.1461864   1.1345410  -0.5181250), wk =   0.0025641
        k(   84) = (  -0.0974576   1.1345410  -0.3454167), wk =   0.0025641
        k(   85) = (  -0.0487288   1.1345410  -0.1727083), wk =   0.0025641
        k(   86) = (   0.0000000   1.3236312   0.0000000), wk =   0.0025641
        k(   87) = (   0.0487288   1.3236312   0.1727083), wk =   0.0025641
        k(   88) = (   0.0974576   1.3236312   0.3454167), wk =   0.0025641
        k(   89) = (   0.1461864   1.3236312   0.5181250), wk =   0.0025641
        k(   90) = (   0.1949153   1.3236312   0.6908333), wk =   0.0025641
        k(   91) = (   0.2436441   1.3236312   0.8635416), wk =   0.0025641
        k(   92) = (   0.2923729   1.3236312   1.0362500), wk =   0.0025641
        k(   93) = (  -0.2923729   1.3236312  -1.0362500), wk =   0.0025641
        k(   94) = (  -0.2436441   1.3236312  -0.8635416), wk =   0.0025641
        k(   95) = (  -0.1949153   1.3236312  -0.6908333), wk =   0.0025641
        k(   96) = (  -0.1461864   1.3236312  -0.5181250), wk =   0.0025641
        k(   97) = (  -0.0974576   1.3236312  -0.3454167), wk =   0.0025641
        k(   98) = (  -0.0487288   1.3236312  -0.1727083), wk =   0.0025641
        k(   99) = (   0.0000000   1.5127213   0.0000000), wk =   0.0025641
        k(  100) = (   0.0487288   1.5127213   0.1727083), wk =   0.0025641
        k(  101) = (   0.0974576   1.5127213   0.3454167), wk =   0.0025641
        k(  102) = (   0.1461864   1.5127213   0.5181250), wk =   0.0025641
        k(  103) = (   0.1949153   1.5127213   0.6908333), wk =   0.0025641
        k(  104) = (   0.2436441   1.5127213   0.8635416), wk =   0.0025641
        k(  105) = (   0.2923729   1.5127213   1.0362500), wk =   0.0025641
        k(  106) = (  -0.2923729   1.5127213  -1.0362500), wk =   0.0025641
        k(  107) = (  -0.2436441   1.5127213  -0.8635416), wk =   0.0025641
        k(  108) = (  -0.1949153   1.5127213  -0.6908333), wk =   0.0025641
        k(  109) = (  -0.1461864   1.5127213  -0.5181250), wk =   0.0025641
        k(  110) = (  -0.0974576   1.5127213  -0.3454167), wk =   0.0025641
        k(  111) = (  -0.0487288   1.5127213  -0.1727083), wk =   0.0025641
        k(  112) = (   0.0000000   1.7018115   0.0000000), wk =   0.0025641
        k(  113) = (   0.0487288   1.7018115   0.1727083), wk =   0.0025641
        k(  114) = (   0.0974576   1.7018115   0.3454167), wk =   0.0025641
        k(  115) = (   0.1461864   1.7018115   0.5181250), wk =   0.0025641
        k(  116) = (   0.1949153   1.7018115   0.6908333), wk =   0.0025641
        k(  117) = (   0.2436441   1.7018115   0.8635416), wk =   0.0025641
        k(  118) = (   0.2923729   1.7018115   1.0362500), wk =   0.0025641
        k(  119) = (  -0.2923729   1.7018115  -1.0362500), wk =   0.0025641
        k(  120) = (  -0.2436441   1.7018115  -0.8635416), wk =   0.0025641
        k(  121) = (  -0.1949153   1.7018115  -0.6908333), wk =   0.0025641
        k(  122) = (  -0.1461864   1.7018115  -0.5181250), wk =   0.0025641
        k(  123) = (  -0.0974576   1.7018115  -0.3454167), wk =   0.0025641
        k(  124) = (  -0.0487288   1.7018115  -0.1727083), wk =   0.0025641
        k(  125) = (   0.0000000  -1.8909017   0.0000000), wk =   0.0012821
        k(  126) = (   0.0487288  -1.8909017   0.1727083), wk =   0.0025641
        k(  127) = (   0.0974576  -1.8909017   0.3454167), wk =   0.0025641
        k(  128) = (   0.1461864  -1.8909017   0.5181250), wk =   0.0025641
        k(  129) = (   0.1949153  -1.8909017   0.6908333), wk =   0.0025641
        k(  130) = (   0.2436441  -1.8909017   0.8635416), wk =   0.0025641
        k(  131) = (   0.2923729  -1.8909017   1.0362500), wk =   0.0025641
        k(  132) = (   0.1733708   0.0000000   0.0006992), wk =   0.0025641
        k(  133) = (   0.2220996   0.0000000   0.1734076), wk =   0.0025641
        k(  134) = (   0.2708284   0.0000000   0.3461159), wk =   0.0025641
        k(  135) = (   0.3195572   0.0000000   0.5188242), wk =   0.0025641
        k(  136) = (   0.3682860   0.0000000   0.6915326), wk =   0.0025641
        k(  137) = (   0.4170148   0.0000000   0.8642409), wk =   0.0025641
        k(  138) = (   0.4657436   0.0000000   1.0369492), wk =   0.0025641
        k(  139) = (  -0.1190021   0.0000000  -1.0355507), wk =   0.0025641
        k(  140) = (  -0.0702733   0.0000000  -0.8628424), wk =   0.0025641
        k(  141) = (  -0.0215445   0.0000000  -0.6901341), wk =   0.0025641
        k(  142) = (   0.0271843   0.0000000  -0.5174257), wk =   0.0025641
        k(  143) = (   0.0759131   0.0000000  -0.3447174), wk =   0.0025641
        k(  144) = (   0.1246419   0.0000000  -0.1720091), wk =   0.0025641
        k(  145) = (   0.1733708   0.1890902   0.0006992), wk =   0.0025641
        k(  146) = (   0.2220996   0.1890902   0.1734076), wk =   0.0025641
        k(  147) = (   0.2708284   0.1890902   0.3461159), wk =   0.0025641
        k(  148) = (   0.3195572   0.1890902   0.5188242), wk =   0.0025641
        k(  149) = (   0.3682860   0.1890902   0.6915326), wk =   0.0025641
        k(  150) = (   0.4170148   0.1890902   0.8642409), wk =   0.0025641
        k(  151) = (   0.4657436   0.1890902   1.0369492), wk =   0.0025641
        k(  152) = (  -0.1190021   0.1890902  -1.0355507), wk =   0.0025641
        k(  153) = (  -0.0702733   0.1890902  -0.8628424), wk =   0.0025641
        k(  154) = (  -0.0215445   0.1890902  -0.6901341), wk =   0.0025641
        k(  155) = (   0.0271843   0.1890902  -0.5174257), wk =   0.0025641
        k(  156) = (   0.0759131   0.1890902  -0.3447174), wk =   0.0025641
        k(  157) = (   0.1246419   0.1890902  -0.1720091), wk =   0.0025641
        k(  158) = (   0.1733708   0.3781803   0.0006992), wk =   0.0025641
        k(  159) = (   0.2220996   0.3781803   0.1734076), wk =   0.0025641
        k(  160) = (   0.2708284   0.3781803   0.3461159), wk =   0.0025641
        k(  161) = (   0.3195572   0.3781803   0.5188242), wk =   0.0025641
        k(  162) = (   0.3682860   0.3781803   0.6915326), wk =   0.0025641
        k(  163) = (   0.4170148   0.3781803   0.8642409), wk =   0.0025641
        k(  164) = (   0.4657436   0.3781803   1.0369492), wk =   0.0025641
        k(  165) = (  -0.1190021   0.3781803  -1.0355507), wk =   0.0025641
        k(  166) = (  -0.0702733   0.3781803  -0.8628424), wk =   0.0025641
        k(  167) = (  -0.0215445   0.3781803  -0.6901341), wk =   0.0025641
        k(  168) = (   0.0271843   0.3781803  -0.5174257), wk =   0.0025641
        k(  169) = (   0.0759131   0.3781803  -0.3447174), wk =   0.0025641
        k(  170) = (   0.1246419   0.3781803  -0.1720091), wk =   0.0025641
        k(  171) = (   0.1733708   0.5672705   0.0006992), wk =   0.0025641
        k(  172) = (   0.2220996   0.5672705   0.1734076), wk =   0.0025641
        k(  173) = (   0.2708284   0.5672705   0.3461159), wk =   0.0025641
        k(  174) = (   0.3195572   0.5672705   0.5188242), wk =   0.0025641
        k(  175) = (   0.3682860   0.5672705   0.6915326), wk =   0.0025641
        k(  176) = (   0.4170148   0.5672705   0.8642409), wk =   0.0025641
        k(  177) = (   0.4657436   0.5672705   1.0369492), wk =   0.0025641
        k(  178) = (  -0.1190021   0.5672705  -1.0355507), wk =   0.0025641
        k(  179) = (  -0.0702733   0.5672705  -0.8628424), wk =   0.0025641
        k(  180) = (  -0.0215445   0.5672705  -0.6901341), wk =   0.0025641
        k(  181) = (   0.0271843   0.5672705  -0.5174257), wk =   0.0025641
        k(  182) = (   0.0759131   0.5672705  -0.3447174), wk =   0.0025641
        k(  183) = (   0.1246419   0.5672705  -0.1720091), wk =   0.0025641
        k(  184) = (   0.1733708   0.7563607   0.0006992), wk =   0.0025641
        k(  185) = (   0.2220996   0.7563607   0.1734076), wk =   0.0025641
        k(  186) = (   0.2708284   0.7563607   0.3461159), wk =   0.0025641
        k(  187) = (   0.3195572   0.7563607   0.5188242), wk =   0.0025641
        k(  188) = (   0.3682860   0.7563607   0.6915326), wk =   0.0025641
        k(  189) = (   0.4170148   0.7563607   0.8642409), wk =   0.0025641
        k(  190) = (   0.4657436   0.7563607   1.0369492), wk =   0.0025641
        k(  191) = (  -0.1190021   0.7563607  -1.0355507), wk =   0.0025641
        k(  192) = (  -0.0702733   0.7563607  -0.8628424), wk =   0.0025641
        k(  193) = (  -0.0215445   0.7563607  -0.6901341), wk =   0.0025641
        k(  194) = (   0.0271843   0.7563607  -0.5174257), wk =   0.0025641
        k(  195) = (   0.0759131   0.7563607  -0.3447174), wk =   0.0025641
        k(  196) = (   0.1246419   0.7563607  -0.1720091), wk =   0.0025641
        k(  197) = (   0.1733708   0.9454508   0.0006992), wk =   0.0025641
        k(  198) = (   0.2220996   0.9454508   0.1734076), wk =   0.0025641
        k(  199) = (   0.2708284   0.9454508   0.3461159), wk =   0.0025641
        k(  200) = (   0.3195572   0.9454508   0.5188242), wk =   0.0025641
        k(  201) = (   0.3682860   0.9454508   0.6915326), wk =   0.0025641
        k(  202) = (   0.4170148   0.9454508   0.8642409), wk =   0.0025641
        k(  203) = (   0.4657436   0.9454508   1.0369492), wk =   0.0025641
        k(  204) = (  -0.1190021   0.9454508  -1.0355507), wk =   0.0025641
        k(  205) = (  -0.0702733   0.9454508  -0.8628424), wk =   0.0025641
        k(  206) = (  -0.0215445   0.9454508  -0.6901341), wk =   0.0025641
        k(  207) = (   0.0271843   0.9454508  -0.5174257), wk =   0.0025641
        k(  208) = (   0.0759131   0.9454508  -0.3447174), wk =   0.0025641
        k(  209) = (   0.1246419   0.9454508  -0.1720091), wk =   0.0025641
        k(  210) = (   0.1733708   1.1345410   0.0006992), wk =   0.0025641
        k(  211) = (   0.2220996   1.1345410   0.1734076), wk =   0.0025641
        k(  212) = (   0.2708284   1.1345410   0.3461159), wk =   0.0025641
        k(  213) = (   0.3195572   1.1345410   0.5188242), wk =   0.0025641
        k(  214) = (   0.3682860   1.1345410   0.6915326), wk =   0.0025641
        k(  215) = (   0.4170148   1.1345410   0.8642409), wk =   0.0025641
        k(  216) = (   0.4657436   1.1345410   1.0369492), wk =   0.0025641
        k(  217) = (  -0.1190021   1.1345410  -1.0355507), wk =   0.0025641
        k(  218) = (  -0.0702733   1.1345410  -0.8628424), wk =   0.0025641
        k(  219) = (  -0.0215445   1.1345410  -0.6901341), wk =   0.0025641
        k(  220) = (   0.0271843   1.1345410  -0.5174257), wk =   0.0025641
        k(  221) = (   0.0759131   1.1345410  -0.3447174), wk =   0.0025641
        k(  222) = (   0.1246419   1.1345410  -0.1720091), wk =   0.0025641
        k(  223) = (   0.1733708   1.3236312   0.0006992), wk =   0.0025641
        k(  224) = (   0.2220996   1.3236312   0.1734076), wk =   0.0025641
        k(  225) = (   0.2708284   1.3236312   0.3461159), wk =   0.0025641
        k(  226) = (   0.3195572   1.3236312   0.5188242), wk =   0.0025641
        k(  227) = (   0.3682860   1.3236312   0.6915326), wk =   0.0025641
        k(  228) = (   0.4170148   1.3236312   0.8642409), wk =   0.0025641
        k(  229) = (   0.4657436   1.3236312   1.0369492), wk =   0.0025641
        k(  230) = (  -0.1190021   1.3236312  -1.0355507), wk =   0.0025641
        k(  231) = (  -0.0702733   1.3236312  -0.8628424), wk =   0.0025641
        k(  232) = (  -0.0215445   1.3236312  -0.6901341), wk =   0.0025641
        k(  233) = (   0.0271843   1.3236312  -0.5174257), wk =   0.0025641
        k(  234) = (   0.0759131   1.3236312  -0.3447174), wk =   0.0025641
        k(  235) = (   0.1246419   1.3236312  -0.1720091), wk =   0.0025641
        k(  236) = (   0.1733708   1.5127213   0.0006992), wk =   0.0025641
        k(  237) = (   0.2220996   1.5127213   0.1734076), wk =   0.0025641
        k(  238) = (   0.2708284   1.5127213   0.3461159), wk =   0.0025641
        k(  239) = (   0.3195572   1.5127213   0.5188242), wk =   0.0025641
        k(  240) = (   0.3682860   1.5127213   0.6915326), wk =   0.0025641
        k(  241) = (   0.4170148   1.5127213   0.8642409), wk =   0.0025641
        k(  242) = (   0.4657436   1.5127213   1.0369492), wk =   0.0025641
        k(  243) = (  -0.1190021   1.5127213  -1.0355507), wk =   0.0025641
        k(  244) = (  -0.0702733   1.5127213  -0.8628424), wk =   0.0025641
        k(  245) = (  -0.0215445   1.5127213  -0.6901341), wk =   0.0025641
        k(  246) = (   0.0271843   1.5127213  -0.5174257), wk =   0.0025641
        k(  247) = (   0.0759131   1.5127213  -0.3447174), wk =   0.0025641
        k(  248) = (   0.1246419   1.5127213  -0.1720091), wk =   0.0025641
        k(  249) = (   0.1733708   1.7018115   0.0006992), wk =   0.0025641
        k(  250) = (   0.2220996   1.7018115   0.1734076), wk =   0.0025641
        k(  251) = (   0.2708284   1.7018115   0.3461159), wk =   0.0025641
        k(  252) = (   0.3195572   1.7018115   0.5188242), wk =   0.0025641
        k(  253) = (   0.3682860   1.7018115   0.6915326), wk =   0.0025641
        k(  254) = (   0.4170148   1.7018115   0.8642409), wk =   0.0025641
        k(  255) = (   0.4657436   1.7018115   1.0369492), wk =   0.0025641
        k(  256) = (  -0.1190021   1.7018115  -1.0355507), wk =   0.0025641
        k(  257) = (  -0.0702733   1.7018115  -0.8628424), wk =   0.0025641
        k(  258) = (  -0.0215445   1.7018115  -0.6901341), wk =   0.0025641
        k(  259) = (   0.0271843   1.7018115  -0.5174257), wk =   0.0025641
        k(  260) = (   0.0759131   1.7018115  -0.3447174), wk =   0.0025641
        k(  261) = (   0.1246419   1.7018115  -0.1720091), wk =   0.0025641
        k(  262) = (   0.1733708  -1.8909017   0.0006992), wk =   0.0025641
        k(  263) = (   0.2220996  -1.8909017   0.1734076), wk =   0.0025641
        k(  264) = (   0.2708284  -1.8909017   0.3461159), wk =   0.0025641
        k(  265) = (   0.3195572  -1.8909017   0.5188242), wk =   0.0025641
        k(  266) = (   0.3682860  -1.8909017   0.6915326), wk =   0.0025641
        k(  267) = (   0.4170148  -1.8909017   0.8642409), wk =   0.0025641
        k(  268) = (   0.4657436  -1.8909017   1.0369492), wk =   0.0025641
        k(  269) = (  -0.1190021  -1.8909017  -1.0355507), wk =   0.0025641
        k(  270) = (  -0.0702733  -1.8909017  -0.8628424), wk =   0.0025641
        k(  271) = (  -0.0215445  -1.8909017  -0.6901341), wk =   0.0025641
        k(  272) = (   0.0271843  -1.8909017  -0.5174257), wk =   0.0025641
        k(  273) = (   0.0759131  -1.8909017  -0.3447174), wk =   0.0025641
        k(  274) = (   0.1246419  -1.8909017  -0.1720091), wk =   0.0025641
        k(  275) = (   0.1733708  -1.7018115   0.0006992), wk =   0.0025641
        k(  276) = (   0.2220996  -1.7018115   0.1734076), wk =   0.0025641
        k(  277) = (   0.2708284  -1.7018115   0.3461159), wk =   0.0025641
        k(  278) = (   0.3195572  -1.7018115   0.5188242), wk =   0.0025641
        k(  279) = (   0.3682860  -1.7018115   0.6915326), wk =   0.0025641
        k(  280) = (   0.4170148  -1.7018115   0.8642409), wk =   0.0025641
        k(  281) = (   0.4657436  -1.7018115   1.0369492), wk =   0.0025641
        k(  282) = (  -0.1190021  -1.7018115  -1.0355507), wk =   0.0025641
        k(  283) = (  -0.0702733  -1.7018115  -0.8628424), wk =   0.0025641
        k(  284) = (  -0.0215445  -1.7018115  -0.6901341), wk =   0.0025641
        k(  285) = (   0.0271843  -1.7018115  -0.5174257), wk =   0.0025641
        k(  286) = (   0.0759131  -1.7018115  -0.3447174), wk =   0.0025641
        k(  287) = (   0.1246419  -1.7018115  -0.1720091), wk =   0.0025641
        k(  288) = (   0.1733708  -1.5127213   0.0006992), wk =   0.0025641
        k(  289) = (   0.2220996  -1.5127213   0.1734076), wk =   0.0025641
        k(  290) = (   0.2708284  -1.5127213   0.3461159), wk =   0.0025641
        k(  291) = (   0.3195572  -1.5127213   0.5188242), wk =   0.0025641
        k(  292) = (   0.3682860  -1.5127213   0.6915326), wk =   0.0025641
        k(  293) = (   0.4170148  -1.5127213   0.8642409), wk =   0.0025641
        k(  294) = (   0.4657436  -1.5127213   1.0369492), wk =   0.0025641
        k(  295) = (  -0.1190021  -1.5127213  -1.0355507), wk =   0.0025641
        k(  296) = (  -0.0702733  -1.5127213  -0.8628424), wk =   0.0025641
        k(  297) = (  -0.0215445  -1.5127213  -0.6901341), wk =   0.0025641
        k(  298) = (   0.0271843  -1.5127213  -0.5174257), wk =   0.0025641
        k(  299) = (   0.0759131  -1.5127213  -0.3447174), wk =   0.0025641
        k(  300) = (   0.1246419  -1.5127213  -0.1720091), wk =   0.0025641
        k(  301) = (   0.1733708  -1.3236312   0.0006992), wk =   0.0025641
        k(  302) = (   0.2220996  -1.3236312   0.1734076), wk =   0.0025641
        k(  303) = (   0.2708284  -1.3236312   0.3461159), wk =   0.0025641
        k(  304) = (   0.3195572  -1.3236312   0.5188242), wk =   0.0025641
        k(  305) = (   0.3682860  -1.3236312   0.6915326), wk =   0.0025641
        k(  306) = (   0.4170148  -1.3236312   0.8642409), wk =   0.0025641
        k(  307) = (   0.4657436  -1.3236312   1.0369492), wk =   0.0025641
        k(  308) = (  -0.1190021  -1.3236312  -1.0355507), wk =   0.0025641
        k(  309) = (  -0.0702733  -1.3236312  -0.8628424), wk =   0.0025641
        k(  310) = (  -0.0215445  -1.3236312  -0.6901341), wk =   0.0025641
        k(  311) = (   0.0271843  -1.3236312  -0.5174257), wk =   0.0025641
        k(  312) = (   0.0759131  -1.3236312  -0.3447174), wk =   0.0025641
        k(  313) = (   0.1246419  -1.3236312  -0.1720091), wk =   0.0025641
        k(  314) = (   0.1733708  -1.1345410   0.0006992), wk =   0.0025641
        k(  315) = (   0.2220996  -1.1345410   0.1734076), wk =   0.0025641
        k(  316) = (   0.2708284  -1.1345410   0.3461159), wk =   0.0025641
        k(  317) = (   0.3195572  -1.1345410   0.5188242), wk =   0.0025641
        k(  318) = (   0.3682860  -1.1345410   0.6915326), wk =   0.0025641
        k(  319) = (   0.4170148  -1.1345410   0.8642409), wk =   0.0025641
        k(  320) = (   0.4657436  -1.1345410   1.0369492), wk =   0.0025641
        k(  321) = (  -0.1190021  -1.1345410  -1.0355507), wk =   0.0025641
        k(  322) = (  -0.0702733  -1.1345410  -0.8628424), wk =   0.0025641
        k(  323) = (  -0.0215445  -1.1345410  -0.6901341), wk =   0.0025641
        k(  324) = (   0.0271843  -1.1345410  -0.5174257), wk =   0.0025641
        k(  325) = (   0.0759131  -1.1345410  -0.3447174), wk =   0.0025641
        k(  326) = (   0.1246419  -1.1345410  -0.1720091), wk =   0.0025641
        k(  327) = (   0.1733708  -0.9454508   0.0006992), wk =   0.0025641
        k(  328) = (   0.2220996  -0.9454508   0.1734076), wk =   0.0025641
        k(  329) = (   0.2708284  -0.9454508   0.3461159), wk =   0.0025641
        k(  330) = (   0.3195572  -0.9454508   0.5188242), wk =   0.0025641
        k(  331) = (   0.3682860  -0.9454508   0.6915326), wk =   0.0025641
        k(  332) = (   0.4170148  -0.9454508   0.8642409), wk =   0.0025641
        k(  333) = (   0.4657436  -0.9454508   1.0369492), wk =   0.0025641
        k(  334) = (  -0.1190021  -0.9454508  -1.0355507), wk =   0.0025641
        k(  335) = (  -0.0702733  -0.9454508  -0.8628424), wk =   0.0025641
        k(  336) = (  -0.0215445  -0.9454508  -0.6901341), wk =   0.0025641
        k(  337) = (   0.0271843  -0.9454508  -0.5174257), wk =   0.0025641
        k(  338) = (   0.0759131  -0.9454508  -0.3447174), wk =   0.0025641
        k(  339) = (   0.1246419  -0.9454508  -0.1720091), wk =   0.0025641
        k(  340) = (   0.1733708  -0.7563607   0.0006992), wk =   0.0025641
        k(  341) = (   0.2220996  -0.7563607   0.1734076), wk =   0.0025641
        k(  342) = (   0.2708284  -0.7563607   0.3461159), wk =   0.0025641
        k(  343) = (   0.3195572  -0.7563607   0.5188242), wk =   0.0025641
        k(  344) = (   0.3682860  -0.7563607   0.6915326), wk =   0.0025641
        k(  345) = (   0.4170148  -0.7563607   0.8642409), wk =   0.0025641
        k(  346) = (   0.4657436  -0.7563607   1.0369492), wk =   0.0025641
        k(  347) = (  -0.1190021  -0.7563607  -1.0355507), wk =   0.0025641
        k(  348) = (  -0.0702733  -0.7563607  -0.8628424), wk =   0.0025641
        k(  349) = (  -0.0215445  -0.7563607  -0.6901341), wk =   0.0025641
        k(  350) = (   0.0271843  -0.7563607  -0.5174257), wk =   0.0025641
        k(  351) = (   0.0759131  -0.7563607  -0.3447174), wk =   0.0025641
        k(  352) = (   0.1246419  -0.7563607  -0.1720091), wk =   0.0025641
        k(  353) = (   0.1733708  -0.5672705   0.0006992), wk =   0.0025641
        k(  354) = (   0.2220996  -0.5672705   0.1734076), wk =   0.0025641
        k(  355) = (   0.2708284  -0.5672705   0.3461159), wk =   0.0025641
        k(  356) = (   0.3195572  -0.5672705   0.5188242), wk =   0.0025641
        k(  357) = (   0.3682860  -0.5672705   0.6915326), wk =   0.0025641
        k(  358) = (   0.4170148  -0.5672705   0.8642409), wk =   0.0025641
        k(  359) = (   0.4657436  -0.5672705   1.0369492), wk =   0.0025641
        k(  360) = (  -0.1190021  -0.5672705  -1.0355507), wk =   0.0025641
        k(  361) = (  -0.0702733  -0.5672705  -0.8628424), wk =   0.0025641
        k(  362) = (  -0.0215445  -0.5672705  -0.6901341), wk =   0.0025641
        k(  363) = (   0.0271843  -0.5672705  -0.5174257), wk =   0.0025641
        k(  364) = (   0.0759131  -0.5672705  -0.3447174), wk =   0.0025641
        k(  365) = (   0.1246419  -0.5672705  -0.1720091), wk =   0.0025641
        k(  366) = (   0.1733708  -0.3781803   0.0006992), wk =   0.0025641
        k(  367) = (   0.2220996  -0.3781803   0.1734076), wk =   0.0025641
        k(  368) = (   0.2708284  -0.3781803   0.3461159), wk =   0.0025641
        k(  369) = (   0.3195572  -0.3781803   0.5188242), wk =   0.0025641
        k(  370) = (   0.3682860  -0.3781803   0.6915326), wk =   0.0025641
        k(  371) = (   0.4170148  -0.3781803   0.8642409), wk =   0.0025641
        k(  372) = (   0.4657436  -0.3781803   1.0369492), wk =   0.0025641
        k(  373) = (  -0.1190021  -0.3781803  -1.0355507), wk =   0.0025641
        k(  374) = (  -0.0702733  -0.3781803  -0.8628424), wk =   0.0025641
        k(  375) = (  -0.0215445  -0.3781803  -0.6901341), wk =   0.0025641
        k(  376) = (   0.0271843  -0.3781803  -0.5174257), wk =   0.0025641
        k(  377) = (   0.0759131  -0.3781803  -0.3447174), wk =   0.0025641
        k(  378) = (   0.1246419  -0.3781803  -0.1720091), wk =   0.0025641
        k(  379) = (   0.1733708  -0.1890902   0.0006992), wk =   0.0025641
        k(  380) = (   0.2220996  -0.1890902   0.1734076), wk =   0.0025641
        k(  381) = (   0.2708284  -0.1890902   0.3461159), wk =   0.0025641
        k(  382) = (   0.3195572  -0.1890902   0.5188242), wk =   0.0025641
        k(  383) = (   0.3682860  -0.1890902   0.6915326), wk =   0.0025641
        k(  384) = (   0.4170148  -0.1890902   0.8642409), wk =   0.0025641
        k(  385) = (   0.4657436  -0.1890902   1.0369492), wk =   0.0025641
        k(  386) = (  -0.1190021  -0.1890902  -1.0355507), wk =   0.0025641
        k(  387) = (  -0.0702733  -0.1890902  -0.8628424), wk =   0.0025641
        k(  388) = (  -0.0215445  -0.1890902  -0.6901341), wk =   0.0025641
        k(  389) = (   0.0271843  -0.1890902  -0.5174257), wk =   0.0025641
        k(  390) = (   0.0759131  -0.1890902  -0.3447174), wk =   0.0025641
        k(  391) = (   0.1246419  -0.1890902  -0.1720091), wk =   0.0025641
        k(  392) = (   0.3467415   0.0000000   0.0013985), wk =   0.0025641
        k(  393) = (   0.3954703   0.0000000   0.1741068), wk =   0.0025641
        k(  394) = (   0.4441992   0.0000000   0.3468151), wk =   0.0025641
        k(  395) = (   0.4929280   0.0000000   0.5195235), wk =   0.0025641
        k(  396) = (   0.5416568   0.0000000   0.6922318), wk =   0.0025641
        k(  397) = (   0.5903856   0.0000000   0.8649401), wk =   0.0025641
        k(  398) = (   0.6391144   0.0000000   1.0376484), wk =   0.0025641
        k(  399) = (   0.0543686   0.0000000  -1.0348515), wk =   0.0025641
        k(  400) = (   0.1030975   0.0000000  -0.8621431), wk =   0.0025641
        k(  401) = (   0.1518263   0.0000000  -0.6894348), wk =   0.0025641
        k(  402) = (   0.2005551   0.0000000  -0.5167265), wk =   0.0025641
        k(  403) = (   0.2492839   0.0000000  -0.3440182), wk =   0.0025641
        k(  404) = (   0.2980127   0.0000000  -0.1713098), wk =   0.0025641
        k(  405) = (   0.3467415   0.1890902   0.0013985), wk =   0.0025641
        k(  406) = (   0.3954703   0.1890902   0.1741068), wk =   0.0025641
        k(  407) = (   0.4441992   0.1890902   0.3468151), wk =   0.0025641
        k(  408) = (   0.4929280   0.1890902   0.5195235), wk =   0.0025641
        k(  409) = (   0.5416568   0.1890902   0.6922318), wk =   0.0025641
        k(  410) = (   0.5903856   0.1890902   0.8649401), wk =   0.0025641
        k(  411) = (   0.6391144   0.1890902   1.0376484), wk =   0.0025641
        k(  412) = (   0.0543686   0.1890902  -1.0348515), wk =   0.0025641
        k(  413) = (   0.1030975   0.1890902  -0.8621431), wk =   0.0025641
        k(  414) = (   0.1518263   0.1890902  -0.6894348), wk =   0.0025641
        k(  415) = (   0.2005551   0.1890902  -0.5167265), wk =   0.0025641
        k(  416) = (   0.2492839   0.1890902  -0.3440182), wk =   0.0025641
        k(  417) = (   0.2980127   0.1890902  -0.1713098), wk =   0.0025641
        k(  418) = (   0.3467415   0.3781803   0.0013985), wk =   0.0025641
        k(  419) = (   0.3954703   0.3781803   0.1741068), wk =   0.0025641
        k(  420) = (   0.4441992   0.3781803   0.3468151), wk =   0.0025641
        k(  421) = (   0.4929280   0.3781803   0.5195235), wk =   0.0025641
        k(  422) = (   0.5416568   0.3781803   0.6922318), wk =   0.0025641
        k(  423) = (   0.5903856   0.3781803   0.8649401), wk =   0.0025641
        k(  424) = (   0.6391144   0.3781803   1.0376484), wk =   0.0025641
        k(  425) = (   0.0543686   0.3781803  -1.0348515), wk =   0.0025641
        k(  426) = (   0.1030975   0.3781803  -0.8621431), wk =   0.0025641
        k(  427) = (   0.1518263   0.3781803  -0.6894348), wk =   0.0025641
        k(  428) = (   0.2005551   0.3781803  -0.5167265), wk =   0.0025641
        k(  429) = (   0.2492839   0.3781803  -0.3440182), wk =   0.0025641
        k(  430) = (   0.2980127   0.3781803  -0.1713098), wk =   0.0025641
        k(  431) = (   0.3467415   0.5672705   0.0013985), wk =   0.0025641
        k(  432) = (   0.3954703   0.5672705   0.1741068), wk =   0.0025641
        k(  433) = (   0.4441992   0.5672705   0.3468151), wk =   0.0025641
        k(  434) = (   0.4929280   0.5672705   0.5195235), wk =   0.0025641
        k(  435) = (   0.5416568   0.5672705   0.6922318), wk =   0.0025641
        k(  436) = (   0.5903856   0.5672705   0.8649401), wk =   0.0025641
        k(  437) = (   0.6391144   0.5672705   1.0376484), wk =   0.0025641
        k(  438) = (   0.0543686   0.5672705  -1.0348515), wk =   0.0025641
        k(  439) = (   0.1030975   0.5672705  -0.8621431), wk =   0.0025641
        k(  440) = (   0.1518263   0.5672705  -0.6894348), wk =   0.0025641
        k(  441) = (   0.2005551   0.5672705  -0.5167265), wk =   0.0025641
        k(  442) = (   0.2492839   0.5672705  -0.3440182), wk =   0.0025641
        k(  443) = (   0.2980127   0.5672705  -0.1713098), wk =   0.0025641
        k(  444) = (   0.3467415   0.7563607   0.0013985), wk =   0.0025641
        k(  445) = (   0.3954703   0.7563607   0.1741068), wk =   0.0025641
        k(  446) = (   0.4441992   0.7563607   0.3468151), wk =   0.0025641
        k(  447) = (   0.4929280   0.7563607   0.5195235), wk =   0.0025641
        k(  448) = (   0.5416568   0.7563607   0.6922318), wk =   0.0025641
        k(  449) = (   0.5903856   0.7563607   0.8649401), wk =   0.0025641
        k(  450) = (   0.6391144   0.7563607   1.0376484), wk =   0.0025641
        k(  451) = (   0.0543686   0.7563607  -1.0348515), wk =   0.0025641
        k(  452) = (   0.1030975   0.7563607  -0.8621431), wk =   0.0025641
        k(  453) = (   0.1518263   0.7563607  -0.6894348), wk =   0.0025641
        k(  454) = (   0.2005551   0.7563607  -0.5167265), wk =   0.0025641
        k(  455) = (   0.2492839   0.7563607  -0.3440182), wk =   0.0025641
        k(  456) = (   0.2980127   0.7563607  -0.1713098), wk =   0.0025641
        k(  457) = (   0.3467415   0.9454508   0.0013985), wk =   0.0025641
        k(  458) = (   0.3954703   0.9454508   0.1741068), wk =   0.0025641
        k(  459) = (   0.4441992   0.9454508   0.3468151), wk =   0.0025641
        k(  460) = (   0.4929280   0.9454508   0.5195235), wk =   0.0025641
        k(  461) = (   0.5416568   0.9454508   0.6922318), wk =   0.0025641
        k(  462) = (   0.5903856   0.9454508   0.8649401), wk =   0.0025641
        k(  463) = (   0.6391144   0.9454508   1.0376484), wk =   0.0025641
        k(  464) = (   0.0543686   0.9454508  -1.0348515), wk =   0.0025641
        k(  465) = (   0.1030975   0.9454508  -0.8621431), wk =   0.0025641
        k(  466) = (   0.1518263   0.9454508  -0.6894348), wk =   0.0025641
        k(  467) = (   0.2005551   0.9454508  -0.5167265), wk =   0.0025641
        k(  468) = (   0.2492839   0.9454508  -0.3440182), wk =   0.0025641
        k(  469) = (   0.2980127   0.9454508  -0.1713098), wk =   0.0025641
        k(  470) = (   0.3467415   1.1345410   0.0013985), wk =   0.0025641
        k(  471) = (   0.3954703   1.1345410   0.1741068), wk =   0.0025641
        k(  472) = (   0.4441992   1.1345410   0.3468151), wk =   0.0025641
        k(  473) = (   0.4929280   1.1345410   0.5195235), wk =   0.0025641
        k(  474) = (   0.5416568   1.1345410   0.6922318), wk =   0.0025641
        k(  475) = (   0.5903856   1.1345410   0.8649401), wk =   0.0025641
        k(  476) = (   0.6391144   1.1345410   1.0376484), wk =   0.0025641
        k(  477) = (   0.0543686   1.1345410  -1.0348515), wk =   0.0025641
        k(  478) = (   0.1030975   1.1345410  -0.8621431), wk =   0.0025641
        k(  479) = (   0.1518263   1.1345410  -0.6894348), wk =   0.0025641
        k(  480) = (   0.2005551   1.1345410  -0.5167265), wk =   0.0025641
        k(  481) = (   0.2492839   1.1345410  -0.3440182), wk =   0.0025641
        k(  482) = (   0.2980127   1.1345410  -0.1713098), wk =   0.0025641
        k(  483) = (   0.3467415   1.3236312   0.0013985), wk =   0.0025641
        k(  484) = (   0.3954703   1.3236312   0.1741068), wk =   0.0025641
        k(  485) = (   0.4441992   1.3236312   0.3468151), wk =   0.0025641
        k(  486) = (   0.4929280   1.3236312   0.5195235), wk =   0.0025641
        k(  487) = (   0.5416568   1.3236312   0.6922318), wk =   0.0025641
        k(  488) = (   0.5903856   1.3236312   0.8649401), wk =   0.0025641
        k(  489) = (   0.6391144   1.3236312   1.0376484), wk =   0.0025641
        k(  490) = (   0.0543686   1.3236312  -1.0348515), wk =   0.0025641
        k(  491) = (   0.1030975   1.3236312  -0.8621431), wk =   0.0025641
        k(  492) = (   0.1518263   1.3236312  -0.6894348), wk =   0.0025641
        k(  493) = (   0.2005551   1.3236312  -0.5167265), wk =   0.0025641
        k(  494) = (   0.2492839   1.3236312  -0.3440182), wk =   0.0025641
        k(  495) = (   0.2980127   1.3236312  -0.1713098), wk =   0.0025641
        k(  496) = (   0.3467415   1.5127213   0.0013985), wk =   0.0025641
        k(  497) = (   0.3954703   1.5127213   0.1741068), wk =   0.0025641
        k(  498) = (   0.4441992   1.5127213   0.3468151), wk =   0.0025641
        k(  499) = (   0.4929280   1.5127213   0.5195235), wk =   0.0025641
        k(  500) = (   0.5416568   1.5127213   0.6922318), wk =   0.0025641
        k(  501) = (   0.5903856   1.5127213   0.8649401), wk =   0.0025641
        k(  502) = (   0.6391144   1.5127213   1.0376484), wk =   0.0025641
        k(  503) = (   0.0543686   1.5127213  -1.0348515), wk =   0.0025641
        k(  504) = (   0.1030975   1.5127213  -0.8621431), wk =   0.0025641
        k(  505) = (   0.1518263   1.5127213  -0.6894348), wk =   0.0025641
        k(  506) = (   0.2005551   1.5127213  -0.5167265), wk =   0.0025641
        k(  507) = (   0.2492839   1.5127213  -0.3440182), wk =   0.0025641
        k(  508) = (   0.2980127   1.5127213  -0.1713098), wk =   0.0025641
        k(  509) = (   0.3467415   1.7018115   0.0013985), wk =   0.0025641
        k(  510) = (   0.3954703   1.7018115   0.1741068), wk =   0.0025641
        k(  511) = (   0.4441992   1.7018115   0.3468151), wk =   0.0025641
        k(  512) = (   0.4929280   1.7018115   0.5195235), wk =   0.0025641
        k(  513) = (   0.5416568   1.7018115   0.6922318), wk =   0.0025641
        k(  514) = (   0.5903856   1.7018115   0.8649401), wk =   0.0025641
        k(  515) = (   0.6391144   1.7018115   1.0376484), wk =   0.0025641
        k(  516) = (   0.0543686   1.7018115  -1.0348515), wk =   0.0025641
        k(  517) = (   0.1030975   1.7018115  -0.8621431), wk =   0.0025641
        k(  518) = (   0.1518263   1.7018115  -0.6894348), wk =   0.0025641
        k(  519) = (   0.2005551   1.7018115  -0.5167265), wk =   0.0025641
        k(  520) = (   0.2492839   1.7018115  -0.3440182), wk =   0.0025641
        k(  521) = (   0.2980127   1.7018115  -0.1713098), wk =   0.0025641
        k(  522) = (   0.3467415  -1.8909017   0.0013985), wk =   0.0025641
        k(  523) = (   0.3954703  -1.8909017   0.1741068), wk =   0.0025641
        k(  524) = (   0.4441992  -1.8909017   0.3468151), wk =   0.0025641
        k(  525) = (   0.4929280  -1.8909017   0.5195235), wk =   0.0025641
        k(  526) = (   0.5416568  -1.8909017   0.6922318), wk =   0.0025641
        k(  527) = (   0.5903856  -1.8909017   0.8649401), wk =   0.0025641
        k(  528) = (   0.6391144  -1.8909017   1.0376484), wk =   0.0025641
        k(  529) = (   0.0543686  -1.8909017  -1.0348515), wk =   0.0025641
        k(  530) = (   0.1030975  -1.8909017  -0.8621431), wk =   0.0025641
        k(  531) = (   0.1518263  -1.8909017  -0.6894348), wk =   0.0025641
        k(  532) = (   0.2005551  -1.8909017  -0.5167265), wk =   0.0025641
        k(  533) = (   0.2492839  -1.8909017  -0.3440182), wk =   0.0025641
        k(  534) = (   0.2980127  -1.8909017  -0.1713098), wk =   0.0025641
        k(  535) = (   0.3467415  -1.7018115   0.0013985), wk =   0.0025641
        k(  536) = (   0.3954703  -1.7018115   0.1741068), wk =   0.0025641
        k(  537) = (   0.4441992  -1.7018115   0.3468151), wk =   0.0025641
        k(  538) = (   0.4929280  -1.7018115   0.5195235), wk =   0.0025641
        k(  539) = (   0.5416568  -1.7018115   0.6922318), wk =   0.0025641
        k(  540) = (   0.5903856  -1.7018115   0.8649401), wk =   0.0025641
        k(  541) = (   0.6391144  -1.7018115   1.0376484), wk =   0.0025641
        k(  542) = (   0.0543686  -1.7018115  -1.0348515), wk =   0.0025641
        k(  543) = (   0.1030975  -1.7018115  -0.8621431), wk =   0.0025641
        k(  544) = (   0.1518263  -1.7018115  -0.6894348), wk =   0.0025641
        k(  545) = (   0.2005551  -1.7018115  -0.5167265), wk =   0.0025641
        k(  546) = (   0.2492839  -1.7018115  -0.3440182), wk =   0.0025641
        k(  547) = (   0.2980127  -1.7018115  -0.1713098), wk =   0.0025641
        k(  548) = (   0.3467415  -1.5127213   0.0013985), wk =   0.0025641
        k(  549) = (   0.3954703  -1.5127213   0.1741068), wk =   0.0025641
        k(  550) = (   0.4441992  -1.5127213   0.3468151), wk =   0.0025641
        k(  551) = (   0.4929280  -1.5127213   0.5195235), wk =   0.0025641
        k(  552) = (   0.5416568  -1.5127213   0.6922318), wk =   0.0025641
        k(  553) = (   0.5903856  -1.5127213   0.8649401), wk =   0.0025641
        k(  554) = (   0.6391144  -1.5127213   1.0376484), wk =   0.0025641
        k(  555) = (   0.0543686  -1.5127213  -1.0348515), wk =   0.0025641
        k(  556) = (   0.1030975  -1.5127213  -0.8621431), wk =   0.0025641
        k(  557) = (   0.1518263  -1.5127213  -0.6894348), wk =   0.0025641
        k(  558) = (   0.2005551  -1.5127213  -0.5167265), wk =   0.0025641
        k(  559) = (   0.2492839  -1.5127213  -0.3440182), wk =   0.0025641
        k(  560) = (   0.2980127  -1.5127213  -0.1713098), wk =   0.0025641
        k(  561) = (   0.3467415  -1.3236312   0.0013985), wk =   0.0025641
        k(  562) = (   0.3954703  -1.3236312   0.1741068), wk =   0.0025641
        k(  563) = (   0.4441992  -1.3236312   0.3468151), wk =   0.0025641
        k(  564) = (   0.4929280  -1.3236312   0.5195235), wk =   0.0025641
        k(  565) = (   0.5416568  -1.3236312   0.6922318), wk =   0.0025641
        k(  566) = (   0.5903856  -1.3236312   0.8649401), wk =   0.0025641
        k(  567) = (   0.6391144  -1.3236312   1.0376484), wk =   0.0025641
        k(  568) = (   0.0543686  -1.3236312  -1.0348515), wk =   0.0025641
        k(  569) = (   0.1030975  -1.3236312  -0.8621431), wk =   0.0025641
        k(  570) = (   0.1518263  -1.3236312  -0.6894348), wk =   0.0025641
        k(  571) = (   0.2005551  -1.3236312  -0.5167265), wk =   0.0025641
        k(  572) = (   0.2492839  -1.3236312  -0.3440182), wk =   0.0025641
        k(  573) = (   0.2980127  -1.3236312  -0.1713098), wk =   0.0025641
        k(  574) = (   0.3467415  -1.1345410   0.0013985), wk =   0.0025641
        k(  575) = (   0.3954703  -1.1345410   0.1741068), wk =   0.0025641
        k(  576) = (   0.4441992  -1.1345410   0.3468151), wk =   0.0025641
        k(  577) = (   0.4929280  -1.1345410   0.5195235), wk =   0.0025641
        k(  578) = (   0.5416568  -1.1345410   0.6922318), wk =   0.0025641
        k(  579) = (   0.5903856  -1.1345410   0.8649401), wk =   0.0025641
        k(  580) = (   0.6391144  -1.1345410   1.0376484), wk =   0.0025641
        k(  581) = (   0.0543686  -1.1345410  -1.0348515), wk =   0.0025641
        k(  582) = (   0.1030975  -1.1345410  -0.8621431), wk =   0.0025641
        k(  583) = (   0.1518263  -1.1345410  -0.6894348), wk =   0.0025641
        k(  584) = (   0.2005551  -1.1345410  -0.5167265), wk =   0.0025641
        k(  585) = (   0.2492839  -1.1345410  -0.3440182), wk =   0.0025641
        k(  586) = (   0.2980127  -1.1345410  -0.1713098), wk =   0.0025641
        k(  587) = (   0.3467415  -0.9454508   0.0013985), wk =   0.0025641
        k(  588) = (   0.3954703  -0.9454508   0.1741068), wk =   0.0025641
        k(  589) = (   0.4441992  -0.9454508   0.3468151), wk =   0.0025641
        k(  590) = (   0.4929280  -0.9454508   0.5195235), wk =   0.0025641
        k(  591) = (   0.5416568  -0.9454508   0.6922318), wk =   0.0025641
        k(  592) = (   0.5903856  -0.9454508   0.8649401), wk =   0.0025641
        k(  593) = (   0.6391144  -0.9454508   1.0376484), wk =   0.0025641
        k(  594) = (   0.0543686  -0.9454508  -1.0348515), wk =   0.0025641
        k(  595) = (   0.1030975  -0.9454508  -0.8621431), wk =   0.0025641
        k(  596) = (   0.1518263  -0.9454508  -0.6894348), wk =   0.0025641
        k(  597) = (   0.2005551  -0.9454508  -0.5167265), wk =   0.0025641
        k(  598) = (   0.2492839  -0.9454508  -0.3440182), wk =   0.0025641
        k(  599) = (   0.2980127  -0.9454508  -0.1713098), wk =   0.0025641
        k(  600) = (   0.3467415  -0.7563607   0.0013985), wk =   0.0025641
        k(  601) = (   0.3954703  -0.7563607   0.1741068), wk =   0.0025641
        k(  602) = (   0.4441992  -0.7563607   0.3468151), wk =   0.0025641
        k(  603) = (   0.4929280  -0.7563607   0.5195235), wk =   0.0025641
        k(  604) = (   0.5416568  -0.7563607   0.6922318), wk =   0.0025641
        k(  605) = (   0.5903856  -0.7563607   0.8649401), wk =   0.0025641
        k(  606) = (   0.6391144  -0.7563607   1.0376484), wk =   0.0025641
        k(  607) = (   0.0543686  -0.7563607  -1.0348515), wk =   0.0025641
        k(  608) = (   0.1030975  -0.7563607  -0.8621431), wk =   0.0025641
        k(  609) = (   0.1518263  -0.7563607  -0.6894348), wk =   0.0025641
        k(  610) = (   0.2005551  -0.7563607  -0.5167265), wk =   0.0025641
        k(  611) = (   0.2492839  -0.7563607  -0.3440182), wk =   0.0025641
        k(  612) = (   0.2980127  -0.7563607  -0.1713098), wk =   0.0025641
        k(  613) = (   0.3467415  -0.5672705   0.0013985), wk =   0.0025641
        k(  614) = (   0.3954703  -0.5672705   0.1741068), wk =   0.0025641
        k(  615) = (   0.4441992  -0.5672705   0.3468151), wk =   0.0025641
        k(  616) = (   0.4929280  -0.5672705   0.5195235), wk =   0.0025641
        k(  617) = (   0.5416568  -0.5672705   0.6922318), wk =   0.0025641
        k(  618) = (   0.5903856  -0.5672705   0.8649401), wk =   0.0025641
        k(  619) = (   0.6391144  -0.5672705   1.0376484), wk =   0.0025641
        k(  620) = (   0.0543686  -0.5672705  -1.0348515), wk =   0.0025641
        k(  621) = (   0.1030975  -0.5672705  -0.8621431), wk =   0.0025641
        k(  622) = (   0.1518263  -0.5672705  -0.6894348), wk =   0.0025641
        k(  623) = (   0.2005551  -0.5672705  -0.5167265), wk =   0.0025641
        k(  624) = (   0.2492839  -0.5672705  -0.3440182), wk =   0.0025641
        k(  625) = (   0.2980127  -0.5672705  -0.1713098), wk =   0.0025641
        k(  626) = (   0.3467415  -0.3781803   0.0013985), wk =   0.0025641
        k(  627) = (   0.3954703  -0.3781803   0.1741068), wk =   0.0025641
        k(  628) = (   0.4441992  -0.3781803   0.3468151), wk =   0.0025641
        k(  629) = (   0.4929280  -0.3781803   0.5195235), wk =   0.0025641
        k(  630) = (   0.5416568  -0.3781803   0.6922318), wk =   0.0025641
        k(  631) = (   0.5903856  -0.3781803   0.8649401), wk =   0.0025641
        k(  632) = (   0.6391144  -0.3781803   1.0376484), wk =   0.0025641
        k(  633) = (   0.0543686  -0.3781803  -1.0348515), wk =   0.0025641
        k(  634) = (   0.1030975  -0.3781803  -0.8621431), wk =   0.0025641
        k(  635) = (   0.1518263  -0.3781803  -0.6894348), wk =   0.0025641
        k(  636) = (   0.2005551  -0.3781803  -0.5167265), wk =   0.0025641
        k(  637) = (   0.2492839  -0.3781803  -0.3440182), wk =   0.0025641
        k(  638) = (   0.2980127  -0.3781803  -0.1713098), wk =   0.0025641
        k(  639) = (   0.3467415  -0.1890902   0.0013985), wk =   0.0025641
        k(  640) = (   0.3954703  -0.1890902   0.1741068), wk =   0.0025641
        k(  641) = (   0.4441992  -0.1890902   0.3468151), wk =   0.0025641
        k(  642) = (   0.4929280  -0.1890902   0.5195235), wk =   0.0025641
        k(  643) = (   0.5416568  -0.1890902   0.6922318), wk =   0.0025641
        k(  644) = (   0.5903856  -0.1890902   0.8649401), wk =   0.0025641
        k(  645) = (   0.6391144  -0.1890902   1.0376484), wk =   0.0025641
        k(  646) = (   0.0543686  -0.1890902  -1.0348515), wk =   0.0025641
        k(  647) = (   0.1030975  -0.1890902  -0.8621431), wk =   0.0025641
        k(  648) = (   0.1518263  -0.1890902  -0.6894348), wk =   0.0025641
        k(  649) = (   0.2005551  -0.1890902  -0.5167265), wk =   0.0025641
        k(  650) = (   0.2492839  -0.1890902  -0.3440182), wk =   0.0025641
        k(  651) = (   0.2980127  -0.1890902  -0.1713098), wk =   0.0025641
        k(  652) = (  -0.5201123   0.0000000  -0.0020977), wk =   0.0012821
        k(  653) = (  -0.4713835   0.0000000   0.1706106), wk =   0.0025641
        k(  654) = (  -0.4226547   0.0000000   0.3433189), wk =   0.0025641
        k(  655) = (  -0.3739258   0.0000000   0.5160272), wk =   0.0025641
        k(  656) = (  -0.3251970   0.0000000   0.6887356), wk =   0.0025641
        k(  657) = (  -0.2764682   0.0000000   0.8614439), wk =   0.0025641
        k(  658) = (  -0.2277394   0.0000000   1.0341522), wk =   0.0025641
        k(  659) = (  -0.5201123   0.1890902  -0.0020977), wk =   0.0025641
        k(  660) = (  -0.4713835   0.1890902   0.1706106), wk =   0.0025641
        k(  661) = (  -0.4226547   0.1890902   0.3433189), wk =   0.0025641
        k(  662) = (  -0.3739258   0.1890902   0.5160272), wk =   0.0025641
        k(  663) = (  -0.3251970   0.1890902   0.6887356), wk =   0.0025641
        k(  664) = (  -0.2764682   0.1890902   0.8614439), wk =   0.0025641
        k(  665) = (  -0.2277394   0.1890902   1.0341522), wk =   0.0025641
        k(  666) = (  -0.8124852   0.1890902  -1.0383477), wk =   0.0025641
        k(  667) = (  -0.7637564   0.1890902  -0.8656394), wk =   0.0025641
        k(  668) = (  -0.7150275   0.1890902  -0.6929310), wk =   0.0025641
        k(  669) = (  -0.6662987   0.1890902  -0.5202227), wk =   0.0025641
        k(  670) = (  -0.6175699   0.1890902  -0.3475144), wk =   0.0025641
        k(  671) = (  -0.5688411   0.1890902  -0.1748061), wk =   0.0025641
        k(  672) = (  -0.5201123   0.3781803  -0.0020977), wk =   0.0025641
        k(  673) = (  -0.4713835   0.3781803   0.1706106), wk =   0.0025641
        k(  674) = (  -0.4226547   0.3781803   0.3433189), wk =   0.0025641
        k(  675) = (  -0.3739258   0.3781803   0.5160272), wk =   0.0025641
        k(  676) = (  -0.3251970   0.3781803   0.6887356), wk =   0.0025641
        k(  677) = (  -0.2764682   0.3781803   0.8614439), wk =   0.0025641
        k(  678) = (  -0.2277394   0.3781803   1.0341522), wk =   0.0025641
        k(  679) = (  -0.8124852   0.3781803  -1.0383477), wk =   0.0025641
        k(  680) = (  -0.7637564   0.3781803  -0.8656394), wk =   0.0025641
        k(  681) = (  -0.7150275   0.3781803  -0.6929310), wk =   0.0025641
        k(  682) = (  -0.6662987   0.3781803  -0.5202227), wk =   0.0025641
        k(  683) = (  -0.6175699   0.3781803  -0.3475144), wk =   0.0025641
        k(  684) = (  -0.5688411   0.3781803  -0.1748061), wk =   0.0025641
        k(  685) = (  -0.5201123   0.5672705  -0.0020977), wk =   0.0025641
        k(  686) = (  -0.4713835   0.5672705   0.1706106), wk =   0.0025641
        k(  687) = (  -0.4226547   0.5672705   0.3433189), wk =   0.0025641
        k(  688) = (  -0.3739258   0.5672705   0.5160272), wk =   0.0025641
        k(  689) = (  -0.3251970   0.5672705   0.6887356), wk =   0.0025641
        k(  690) = (  -0.2764682   0.5672705   0.8614439), wk =   0.0025641
        k(  691) = (  -0.2277394   0.5672705   1.0341522), wk =   0.0025641
        k(  692) = (  -0.8124852   0.5672705  -1.0383477), wk =   0.0025641
        k(  693) = (  -0.7637564   0.5672705  -0.8656394), wk =   0.0025641
        k(  694) = (  -0.7150275   0.5672705  -0.6929310), wk =   0.0025641
        k(  695) = (  -0.6662987   0.5672705  -0.5202227), wk =   0.0025641
        k(  696) = (  -0.6175699   0.5672705  -0.3475144), wk =   0.0025641
        k(  697) = (  -0.5688411   0.5672705  -0.1748061), wk =   0.0025641
        k(  698) = (  -0.5201123   0.7563607  -0.0020977), wk =   0.0025641
        k(  699) = (  -0.4713835   0.7563607   0.1706106), wk =   0.0025641
        k(  700) = (  -0.4226547   0.7563607   0.3433189), wk =   0.0025641
        k(  701) = (  -0.3739258   0.7563607   0.5160272), wk =   0.0025641
        k(  702) = (  -0.3251970   0.7563607   0.6887356), wk =   0.0025641
        k(  703) = (  -0.2764682   0.7563607   0.8614439), wk =   0.0025641
        k(  704) = (  -0.2277394   0.7563607   1.0341522), wk =   0.0025641
        k(  705) = (  -0.8124852   0.7563607  -1.0383477), wk =   0.0025641
        k(  706) = (  -0.7637564   0.7563607  -0.8656394), wk =   0.0025641
        k(  707) = (  -0.7150275   0.7563607  -0.6929310), wk =   0.0025641
        k(  708) = (  -0.6662987   0.7563607  -0.5202227), wk =   0.0025641
        k(  709) = (  -0.6175699   0.7563607  -0.3475144), wk =   0.0025641
        k(  710) = (  -0.5688411   0.7563607  -0.1748061), wk =   0.0025641
        k(  711) = (  -0.5201123   0.9454508  -0.0020977), wk =   0.0025641
        k(  712) = (  -0.4713835   0.9454508   0.1706106), wk =   0.0025641
        k(  713) = (  -0.4226547   0.9454508   0.3433189), wk =   0.0025641
        k(  714) = (  -0.3739258   0.9454508   0.5160272), wk =   0.0025641
        k(  715) = (  -0.3251970   0.9454508   0.6887356), wk =   0.0025641
        k(  716) = (  -0.2764682   0.9454508   0.8614439), wk =   0.0025641
        k(  717) = (  -0.2277394   0.9454508   1.0341522), wk =   0.0025641
        k(  718) = (  -0.8124852   0.9454508  -1.0383477), wk =   0.0025641
        k(  719) = (  -0.7637564   0.9454508  -0.8656394), wk =   0.0025641
        k(  720) = (  -0.7150275   0.9454508  -0.6929310), wk =   0.0025641
        k(  721) = (  -0.6662987   0.9454508  -0.5202227), wk =   0.0025641
        k(  722) = (  -0.6175699   0.9454508  -0.3475144), wk =   0.0025641
        k(  723) = (  -0.5688411   0.9454508  -0.1748061), wk =   0.0025641
        k(  724) = (  -0.5201123   1.1345410  -0.0020977), wk =   0.0025641
        k(  725) = (  -0.4713835   1.1345410   0.1706106), wk =   0.0025641
        k(  726) = (  -0.4226547   1.1345410   0.3433189), wk =   0.0025641
        k(  727) = (  -0.3739258   1.1345410   0.5160272), wk =   0.0025641
        k(  728) = (  -0.3251970   1.1345410   0.6887356), wk =   0.0025641
        k(  729) = (  -0.2764682   1.1345410   0.8614439), wk =   0.0025641
        k(  730) = (  -0.2277394   1.1345410   1.0341522), wk =   0.0025641
        k(  731) = (  -0.8124852   1.1345410  -1.0383477), wk =   0.0025641
        k(  732) = (  -0.7637564   1.1345410  -0.8656394), wk =   0.0025641
        k(  733) = (  -0.7150275   1.1345410  -0.6929310), wk =   0.0025641
        k(  734) = (  -0.6662987   1.1345410  -0.5202227), wk =   0.0025641
        k(  735) = (  -0.6175699   1.1345410  -0.3475144), wk =   0.0025641
        k(  736) = (  -0.5688411   1.1345410  -0.1748061), wk =   0.0025641
        k(  737) = (  -0.5201123   1.3236312  -0.0020977), wk =   0.0025641
        k(  738) = (  -0.4713835   1.3236312   0.1706106), wk =   0.0025641
        k(  739) = (  -0.4226547   1.3236312   0.3433189), wk =   0.0025641
        k(  740) = (  -0.3739258   1.3236312   0.5160272), wk =   0.0025641
        k(  741) = (  -0.3251970   1.3236312   0.6887356), wk =   0.0025641
        k(  742) = (  -0.2764682   1.3236312   0.8614439), wk =   0.0025641
        k(  743) = (  -0.2277394   1.3236312   1.0341522), wk =   0.0025641
        k(  744) = (  -0.8124852   1.3236312  -1.0383477), wk =   0.0025641
        k(  745) = (  -0.7637564   1.3236312  -0.8656394), wk =   0.0025641
        k(  746) = (  -0.7150275   1.3236312  -0.6929310), wk =   0.0025641
        k(  747) = (  -0.6662987   1.3236312  -0.5202227), wk =   0.0025641
        k(  748) = (  -0.6175699   1.3236312  -0.3475144), wk =   0.0025641
        k(  749) = (  -0.5688411   1.3236312  -0.1748061), wk =   0.0025641
        k(  750) = (  -0.5201123   1.5127213  -0.0020977), wk =   0.0025641
        k(  751) = (  -0.4713835   1.5127213   0.1706106), wk =   0.0025641
        k(  752) = (  -0.4226547   1.5127213   0.3433189), wk =   0.0025641
        k(  753) = (  -0.3739258   1.5127213   0.5160272), wk =   0.0025641
        k(  754) = (  -0.3251970   1.5127213   0.6887356), wk =   0.0025641
        k(  755) = (  -0.2764682   1.5127213   0.8614439), wk =   0.0025641
        k(  756) = (  -0.2277394   1.5127213   1.0341522), wk =   0.0025641
        k(  757) = (  -0.8124852   1.5127213  -1.0383477), wk =   0.0025641
        k(  758) = (  -0.7637564   1.5127213  -0.8656394), wk =   0.0025641
        k(  759) = (  -0.7150275   1.5127213  -0.6929310), wk =   0.0025641
        k(  760) = (  -0.6662987   1.5127213  -0.5202227), wk =   0.0025641
        k(  761) = (  -0.6175699   1.5127213  -0.3475144), wk =   0.0025641
        k(  762) = (  -0.5688411   1.5127213  -0.1748061), wk =   0.0025641
        k(  763) = (  -0.5201123   1.7018115  -0.0020977), wk =   0.0025641
        k(  764) = (  -0.4713835   1.7018115   0.1706106), wk =   0.0025641
        k(  765) = (  -0.4226547   1.7018115   0.3433189), wk =   0.0025641
        k(  766) = (  -0.3739258   1.7018115   0.5160272), wk =   0.0025641
        k(  767) = (  -0.3251970   1.7018115   0.6887356), wk =   0.0025641
        k(  768) = (  -0.2764682   1.7018115   0.8614439), wk =   0.0025641
        k(  769) = (  -0.2277394   1.7018115   1.0341522), wk =   0.0025641
        k(  770) = (  -0.8124852   1.7018115  -1.0383477), wk =   0.0025641
        k(  771) = (  -0.7637564   1.7018115  -0.8656394), wk =   0.0025641
        k(  772) = (  -0.7150275   1.7018115  -0.6929310), wk =   0.0025641
        k(  773) = (  -0.6662987   1.7018115  -0.5202227), wk =   0.0025641
        k(  774) = (  -0.6175699   1.7018115  -0.3475144), wk =   0.0025641
        k(  775) = (  -0.5688411   1.7018115  -0.1748061), wk =   0.0025641
        k(  776) = (  -0.5201123  -1.8909017  -0.0020977), wk =   0.0012821
        k(  777) = (  -0.4713835  -1.8909017   0.1706106), wk =   0.0025641
        k(  778) = (  -0.4226547  -1.8909017   0.3433189), wk =   0.0025641
        k(  779) = (  -0.3739258  -1.8909017   0.5160272), wk =   0.0025641
        k(  780) = (  -0.3251970  -1.8909017   0.6887356), wk =   0.0025641
        k(  781) = (  -0.2764682  -1.8909017   0.8614439), wk =   0.0025641
        k(  782) = (  -0.2277394  -1.8909017   1.0341522), wk =   0.0025641

                       cryst. coord.
        k(    1) = (   0.0000000   0.0000000   0.0000000), wk =   0.0012821
        k(    2) = (  -0.0000000   0.0000000   0.0769231), wk =   0.0025641
        k(    3) = (  -0.0000000   0.0000000   0.1538462), wk =   0.0025641
        k(    4) = (   0.0000000   0.0000000   0.2307692), wk =   0.0025641
        k(    5) = (  -0.0000000   0.0000000   0.3076923), wk =   0.0025641
        k(    6) = (   0.0000000   0.0000000   0.3846154), wk =   0.0025641
        k(    7) = (   0.0000000   0.0000000   0.4615385), wk =   0.0025641
        k(    8) = (   0.0000000   0.0500000   0.0000000), wk =   0.0025641
        k(    9) = (  -0.0000000   0.0500000   0.0769231), wk =   0.0025641
        k(   10) = (  -0.0000000   0.0500000   0.1538462), wk =   0.0025641
        k(   11) = (   0.0000000   0.0500000   0.2307692), wk =   0.0025641
        k(   12) = (  -0.0000000   0.0500000   0.3076923), wk =   0.0025641
        k(   13) = (   0.0000000   0.0500000   0.3846154), wk =   0.0025641
        k(   14) = (   0.0000000   0.0500000   0.4615385), wk =   0.0025641
        k(   15) = (  -0.0000000   0.0500000  -0.4615385), wk =   0.0025641
        k(   16) = (  -0.0000000   0.0500000  -0.3846154), wk =   0.0025641
        k(   17) = (   0.0000000   0.0500000  -0.3076923), wk =   0.0025641
        k(   18) = (  -0.0000000   0.0500000  -0.2307692), wk =   0.0025641
        k(   19) = (   0.0000000   0.0500000  -0.1538462), wk =   0.0025641
        k(   20) = (  -0.0000000   0.0500000  -0.0769231), wk =   0.0025641
        k(   21) = (   0.0000000   0.1000000   0.0000000), wk =   0.0025641
        k(   22) = (  -0.0000000   0.1000000   0.0769231), wk =   0.0025641
        k(   23) = (  -0.0000000   0.1000000   0.1538462), wk =   0.0025641
        k(   24) = (   0.0000000   0.1000000   0.2307692), wk =   0.0025641
        k(   25) = (  -0.0000000   0.1000000   0.3076923), wk =   0.0025641
        k(   26) = (   0.0000000   0.1000000   0.3846154), wk =   0.0025641
        k(   27) = (   0.0000000   0.1000000   0.4615385), wk =   0.0025641
        k(   28) = (  -0.0000000   0.1000000  -0.4615385), wk =   0.0025641
        k(   29) = (  -0.0000000   0.1000000  -0.3846154), wk =   0.0025641
        k(   30) = (   0.0000000   0.1000000  -0.3076923), wk =   0.0025641
        k(   31) = (  -0.0000000   0.1000000  -0.2307692), wk =   0.0025641
        k(   32) = (   0.0000000   0.1000000  -0.1538462), wk =   0.0025641
        k(   33) = (  -0.0000000   0.1000000  -0.0769231), wk =   0.0025641
        k(   34) = (   0.0000000   0.1500000   0.0000000), wk =   0.0025641
        k(   35) = (  -0.0000000   0.1500000   0.0769231), wk =   0.0025641
        k(   36) = (  -0.0000000   0.1500000   0.1538462), wk =   0.0025641
        k(   37) = (   0.0000000   0.1500000   0.2307692), wk =   0.0025641
        k(   38) = (  -0.0000000   0.1500000   0.3076923), wk =   0.0025641
        k(   39) = (   0.0000000   0.1500000   0.3846154), wk =   0.0025641
        k(   40) = (   0.0000000   0.1500000   0.4615385), wk =   0.0025641
        k(   41) = (  -0.0000000   0.1500000  -0.4615385), wk =   0.0025641
        k(   42) = (  -0.0000000   0.1500000  -0.3846154), wk =   0.0025641
        k(   43) = (   0.0000000   0.1500000  -0.3076923), wk =   0.0025641
        k(   44) = (  -0.0000000   0.1500000  -0.2307692), wk =   0.0025641
        k(   45) = (   0.0000000   0.1500000  -0.1538462), wk =   0.0025641
        k(   46) = (  -0.0000000   0.1500000  -0.0769231), wk =   0.0025641
        k(   47) = (   0.0000000   0.2000000   0.0000000), wk =   0.0025641
        k(   48) = (  -0.0000000   0.2000000   0.0769231), wk =   0.0025641
        k(   49) = (  -0.0000000   0.2000000   0.1538462), wk =   0.0025641
        k(   50) = (   0.0000000   0.2000000   0.2307692), wk =   0.0025641
        k(   51) = (  -0.0000000   0.2000000   0.3076923), wk =   0.0025641
        k(   52) = (   0.0000000   0.2000000   0.3846154), wk =   0.0025641
        k(   53) = (   0.0000000   0.2000000   0.4615385), wk =   0.0025641
        k(   54) = (  -0.0000000   0.2000000  -0.4615385), wk =   0.0025641
        k(   55) = (  -0.0000000   0.2000000  -0.3846154), wk =   0.0025641
        k(   56) = (   0.0000000   0.2000000  -0.3076923), wk =   0.0025641
        k(   57) = (  -0.0000000   0.2000000  -0.2307692), wk =   0.0025641
        k(   58) = (   0.0000000   0.2000000  -0.1538462), wk =   0.0025641
        k(   59) = (  -0.0000000   0.2000000  -0.0769231), wk =   0.0025641
        k(   60) = (   0.0000000   0.2500000   0.0000000), wk =   0.0025641
        k(   61) = (  -0.0000000   0.2500000   0.0769231), wk =   0.0025641
        k(   62) = (  -0.0000000   0.2500000   0.1538462), wk =   0.0025641
        k(   63) = (   0.0000000   0.2500000   0.2307692), wk =   0.0025641
        k(   64) = (  -0.0000000   0.2500000   0.3076923), wk =   0.0025641
        k(   65) = (   0.0000000   0.2500000   0.3846154), wk =   0.0025641
        k(   66) = (   0.0000000   0.2500000   0.4615385), wk =   0.0025641
        k(   67) = (  -0.0000000   0.2500000  -0.4615385), wk =   0.0025641
        k(   68) = (  -0.0000000   0.2500000  -0.3846154), wk =   0.0025641
        k(   69) = (   0.0000000   0.2500000  -0.3076923), wk =   0.0025641
        k(   70) = (  -0.0000000   0.2500000  -0.2307692), wk =   0.0025641
        k(   71) = (   0.0000000   0.2500000  -0.1538462), wk =   0.0025641
        k(   72) = (  -0.0000000   0.2500000  -0.0769231), wk =   0.0025641
        k(   73) = (   0.0000000   0.3000000   0.0000000), wk =   0.0025641
        k(   74) = (  -0.0000000   0.3000000   0.0769231), wk =   0.0025641
        k(   75) = (  -0.0000000   0.3000000   0.1538462), wk =   0.0025641
        k(   76) = (   0.0000000   0.3000000   0.2307692), wk =   0.0025641
        k(   77) = (  -0.0000000   0.3000000   0.3076923), wk =   0.0025641
        k(   78) = (   0.0000000   0.3000000   0.3846154), wk =   0.0025641
        k(   79) = (   0.0000000   0.3000000   0.4615385), wk =   0.0025641
        k(   80) = (  -0.0000000   0.3000000  -0.4615385), wk =   0.0025641
        k(   81) = (  -0.0000000   0.3000000  -0.3846154), wk =   0.0025641
        k(   82) = (   0.0000000   0.3000000  -0.3076923), wk =   0.0025641
        k(   83) = (  -0.0000000   0.3000000  -0.2307692), wk =   0.0025641
        k(   84) = (   0.0000000   0.3000000  -0.1538462), wk =   0.0025641
        k(   85) = (  -0.0000000   0.3000000  -0.0769231), wk =   0.0025641
        k(   86) = (   0.0000000   0.3500000   0.0000000), wk =   0.0025641
        k(   87) = (  -0.0000000   0.3500000   0.0769231), wk =   0.0025641
        k(   88) = (  -0.0000000   0.3500000   0.1538462), wk =   0.0025641
        k(   89) = (   0.0000000   0.3500000   0.2307692), wk =   0.0025641
        k(   90) = (  -0.0000000   0.3500000   0.3076923), wk =   0.0025641
        k(   91) = (   0.0000000   0.3500000   0.3846154), wk =   0.0025641
        k(   92) = (   0.0000000   0.3500000   0.4615385), wk =   0.0025641
        k(   93) = (  -0.0000000   0.3500000  -0.4615385), wk =   0.0025641
        k(   94) = (  -0.0000000   0.3500000  -0.3846154), wk =   0.0025641
        k(   95) = (   0.0000000   0.3500000  -0.3076923), wk =   0.0025641
        k(   96) = (  -0.0000000   0.3500000  -0.2307692), wk =   0.0025641
        k(   97) = (   0.0000000   0.3500000  -0.1538462), wk =   0.0025641
        k(   98) = (  -0.0000000   0.3500000  -0.0769231), wk =   0.0025641
        k(   99) = (   0.0000000   0.4000000   0.0000000), wk =   0.0025641
        k(  100) = (  -0.0000000   0.4000000   0.0769231), wk =   0.0025641
        k(  101) = (  -0.0000000   0.4000000   0.1538462), wk =   0.0025641
        k(  102) = (   0.0000000   0.4000000   0.2307692), wk =   0.0025641
        k(  103) = (  -0.0000000   0.4000000   0.3076923), wk =   0.0025641
        k(  104) = (   0.0000000   0.4000000   0.3846154), wk =   0.0025641
        k(  105) = (   0.0000000   0.4000000   0.4615385), wk =   0.0025641
        k(  106) = (  -0.0000000   0.4000000  -0.4615385), wk =   0.0025641
        k(  107) = (  -0.0000000   0.4000000  -0.3846154), wk =   0.0025641
        k(  108) = (   0.0000000   0.4000000  -0.3076923), wk =   0.0025641
        k(  109) = (  -0.0000000   0.4000000  -0.2307692), wk =   0.0025641
        k(  110) = (   0.0000000   0.4000000  -0.1538462), wk =   0.0025641
        k(  111) = (  -0.0000000   0.4000000  -0.0769231), wk =   0.0025641
        k(  112) = (   0.0000000   0.4500000   0.0000000), wk =   0.0025641
        k(  113) = (  -0.0000000   0.4500000   0.0769231), wk =   0.0025641
        k(  114) = (  -0.0000000   0.4500000   0.1538462), wk =   0.0025641
        k(  115) = (   0.0000000   0.4500000   0.2307692), wk =   0.0025641
        k(  116) = (  -0.0000000   0.4500000   0.3076923), wk =   0.0025641
        k(  117) = (   0.0000000   0.4500000   0.3846154), wk =   0.0025641
        k(  118) = (   0.0000000   0.4500000   0.4615385), wk =   0.0025641
        k(  119) = (  -0.0000000   0.4500000  -0.4615385), wk =   0.0025641
        k(  120) = (  -0.0000000   0.4500000  -0.3846154), wk =   0.0025641
        k(  121) = (   0.0000000   0.4500000  -0.3076923), wk =   0.0025641
        k(  122) = (  -0.0000000   0.4500000  -0.2307692), wk =   0.0025641
        k(  123) = (   0.0000000   0.4500000  -0.1538462), wk =   0.0025641
        k(  124) = (  -0.0000000   0.4500000  -0.0769231), wk =   0.0025641
        k(  125) = (   0.0000000  -0.5000000   0.0000000), wk =   0.0012821
        k(  126) = (  -0.0000000  -0.5000000   0.0769231), wk =   0.0025641
        k(  127) = (  -0.0000000  -0.5000000   0.1538462), wk =   0.0025641
        k(  128) = (   0.0000000  -0.5000000   0.2307692), wk =   0.0025641
        k(  129) = (  -0.0000000  -0.5000000   0.3076923), wk =   0.0025641
        k(  130) = (   0.0000000  -0.5000000   0.3846154), wk =   0.0025641
        k(  131) = (   0.0000000  -0.5000000   0.4615385), wk =   0.0025641
        k(  132) = (   0.1666667   0.0000000   0.0000000), wk =   0.0025641
        k(  133) = (   0.1666667   0.0000000   0.0769231), wk =   0.0025641
        k(  134) = (   0.1666667   0.0000000   0.1538462), wk =   0.0025641
        k(  135) = (   0.1666667   0.0000000   0.2307692), wk =   0.0025641
        k(  136) = (   0.1666667   0.0000000   0.3076923), wk =   0.0025641
        k(  137) = (   0.1666667   0.0000000   0.3846154), wk =   0.0025641
        k(  138) = (   0.1666667   0.0000000   0.4615385), wk =   0.0025641
        k(  139) = (   0.1666667   0.0000000  -0.4615385), wk =   0.0025641
        k(  140) = (   0.1666667   0.0000000  -0.3846154), wk =   0.0025641
        k(  141) = (   0.1666667   0.0000000  -0.3076923), wk =   0.0025641
        k(  142) = (   0.1666667   0.0000000  -0.2307692), wk =   0.0025641
[...]
     0.8256   0.8256   0.1973   0.1973   0.0955   0.0955

          k =-0.2277-1.8909 1.0342 ( 11798 PWs)   bands (ev):

    -3.1471  -3.1471  -2.1701  -2.1701  -1.9561  -1.9561  -1.1634  -1.1634
     0.0138   0.0138   0.7647   0.7647   0.8659   0.8659   2.0053   2.0053
     2.0962   2.0962   2.7379   2.7379   3.5003   3.5003   3.8165   3.8165
     4.2557   4.2557   4.6394   4.6394   4.8883   4.8883   5.5836   5.5836
     6.1465   6.1465   6.5003   6.5003   6.7960   6.7960

     occupation numbers 
     1.0000   1.0000   1.0000   1.0000   1.0000   1.0000   1.0000   1.0000
     1.0000   1.0000   1.0000   1.0000   1.0000   1.0000   1.0000   1.0000
     1.0000   1.0000   1.0000   1.0000   1.0000   1.0000   1.0000   1.0000
     1.0000   1.0000   1.0002   1.0002   1.0013   1.0013   1.0342   1.0342
     0.8001   0.8001   0.3302   0.3302   0.0408   0.0408

     the Fermi energy is     6.3771 ev

!    total energy              =    -585.64460065 Ry
     Harris-Foulkes estimate   =    -585.64460065 Ry
     estimated scf accuracy    <          6.5E-13 Ry

     The total energy is the sum of the following terms:

     one-electron contribution =      41.80841942 Ry
     hartree contribution      =       8.28008118 Ry
     xc contribution           =     -75.86253522 Ry
     ewald contribution        =    -108.27587225 Ry
     one-center paw contrib.   =    -451.59100214 Ry
      -> PAW hartree energy AE =       0.84553214 Ry
      -> PAW hartree energy PS =      -0.84361097 Ry
      -> PAW xc energy AE      =     -32.63793849 Ry
      -> PAW xc energy PS      =       1.33949495 Ry
      -> total E_H with PAW    =       8.28200236 Ry
      -> total E_XC with PAW   =    -107.16097876 Ry
     smearing contrib. (-TS)   =      -0.00369164 Ry

     convergence has been achieved in  19 iterations

     Forces acting on atoms (cartesian axes, Ry/au):

     atom    1 type  1   force =    -0.00000413   -0.00000002   -0.00000065
     atom    2 type  1   force =    -0.00082568    0.00000001    0.00014725
     atom    3 type  1   force =    -0.00127294    0.00000002   -0.00047775
     atom    4 type  1   force =     0.00126108   -0.00000000    0.00048615
     atom    5 type  1   force =     0.00083616   -0.00000001   -0.00016153
     atom    6 type  2   force =    -0.00053558   -0.00000033   -0.00055603
     atom    7 type  2   force =     0.00021577    0.00000013    0.00027599
     atom    8 type  3   force =    -0.00059215   -0.00000004   -0.00045746
     atom    9 type  3   force =     0.00058781    0.00000005    0.00045207
     atom   10 type  2   force =    -0.00019486   -0.00000016   -0.00025688
     atom   11 type  2   force =     0.00052462    0.00000032    0.00054890
     atom   12 type  1   force =    -0.00000407    0.00000002   -0.00000067
     atom   13 type  1   force =    -0.00082570   -0.00000002    0.00014718
     atom   14 type  1   force =    -0.00127289    0.00000004   -0.00047762
     atom   15 type  1   force =     0.00126111   -0.00000005    0.00048618
     atom   16 type  1   force =     0.00083610    0.00000002   -0.00016152
     atom   17 type  2   force =    -0.00053576   -0.00000017   -0.00055609
     atom   18 type  2   force =     0.00021577   -0.00000009    0.00027591
     atom   19 type  3   force =    -0.00059197   -0.00000026   -0.00045753
     atom   20 type  3   force =     0.00058787    0.00000024    0.00045200
     atom   21 type  2   force =    -0.00019489    0.00000013   -0.00025673
     atom   22 type  2   force =     0.00052433    0.00000017    0.00054884
     The non-local contrib.  to forces
     atom    1 type  1   force =    -0.00001590    0.00000008   -0.00000459
     atom    2 type  1   force =     0.01379956   -0.00000083   -0.00077725
     atom    3 type  1   force =     0.00752333   -0.00000050    0.01117066
     atom    4 type  1   force =    -0.00756886    0.00000052   -0.01114674
     atom    5 type  1   force =    -0.01376947    0.00000084    0.00072805
     atom    6 type  2   force =    -0.02229555   -0.00000014   -0.05451646
     atom    7 type  2   force =     0.01660417   -0.00000007    0.02124756
     atom    8 type  3   force =     0.00600632   -0.00000008   -0.01078802
     atom    9 type  3   force =    -0.00601261    0.00000009    0.01078844
     atom   10 type  2   force =    -0.01657512    0.00000005   -0.02121710
     atom   11 type  2   force =     0.02230113    0.00000007    0.05449680
     atom   12 type  1   force =    -0.00001606   -0.00000009   -0.00000455
     atom   13 type  1   force =     0.01379938   -0.00000074   -0.00077714
     atom   14 type  1   force =     0.00752358   -0.00000025    0.01117053
     atom   15 type  1   force =    -0.00756902    0.00000030   -0.01114669
     atom   16 type  1   force =    -0.01376965    0.00000073    0.00072814
     atom   17 type  2   force =    -0.02229566   -0.00000012   -0.05451638
     atom   18 type  2   force =     0.01660430    0.00000016    0.02124733
     atom   19 type  3   force =     0.00600648   -0.00000018   -0.01078821
     atom   20 type  3   force =    -0.00601238    0.00000016    0.01078837
     atom   21 type  2   force =    -0.01657507   -0.00000018   -0.02121674
     atom   22 type  2   force =     0.02230079    0.00000017    0.05449714
     The ionic contribution  to forces
     atom    1 type  1   force =    -0.00005113   -0.00000000    0.00001308
     atom    2 type  1   force =    -0.15899376    0.00000000   -0.31437077
     atom    3 type  1   force =    -0.15719314    0.00000000    0.17749943
     atom    4 type  1   force =     0.15719970   -0.00000000   -0.17744958
     atom    5 type  1   force =     0.15909367   -0.00000000    0.31430413
     atom    6 type  2   force =     0.14040810   -0.00000000    0.85302133
     atom    7 type  2   force =    -0.62227202   -0.00000000   -0.77839646
     atom    8 type  3   force =    -0.05561264   -0.00000000    0.33501559
     atom    9 type  3   force =     0.05555083    0.00000000   -0.33513725
     atom   10 type  2   force =     0.62232155    0.00000000    0.77851549
     atom   11 type  2   force =    -0.14045097    0.00000000   -0.85301468
     atom   12 type  1   force =    -0.00005156    0.00000000    0.00001296
     atom   13 type  1   force =    -0.15899410   -0.00000000   -0.31437069
     atom   14 type  1   force =    -0.15719239   -0.00000000    0.17749977
     atom   15 type  1   force =     0.15719950    0.00000000   -0.17744910
     atom   16 type  1   force =     0.15909345    0.00000000    0.31430405
     atom   17 type  2   force =     0.14040742    0.00000000    0.85302106
     atom   18 type  2   force =    -0.62227155    0.00000000   -0.77839707
     atom   19 type  3   force =    -0.05561215    0.00000000    0.33501598
     atom   20 type  3   force =     0.05555163   -0.00000000   -0.33513810
     atom   21 type  2   force =     0.62232170   -0.00000000    0.77851587
     atom   22 type  2   force =    -0.14045214   -0.00000000   -0.85301505
     The local contribution  to forces
     atom    1 type  1   force =     0.00006064   -0.00000009   -0.00000958
     atom    2 type  1   force =     0.14607629    0.00000076    0.31473791
     atom    3 type  1   force =     0.14910044    0.00000047   -0.18757515
     atom    4 type  1   force =    -0.14907896   -0.00000047    0.18751239
     atom    5 type  1   force =    -0.14619248   -0.00000077   -0.31464217
     atom    6 type  2   force =    -0.12076160   -0.00000021   -0.80444380
     atom    7 type  2   force =     0.60749282    0.00000019    0.75946208
     atom    8 type  3   force =     0.04964073    0.00000003   -0.32560706
     atom    9 type  3   force =    -0.04957840   -0.00000002    0.32572261
     atom   10 type  2   force =    -0.60755428   -0.00000020   -0.75958712
     atom   11 type  2   force =     0.12080082    0.00000026    0.80444654
     atom   12 type  1   force =     0.00006132    0.00000010   -0.00000952
     atom   13 type  1   force =     0.14607681    0.00000064    0.31473768
     atom   14 type  1   force =     0.14909955    0.00000027   -0.18757525
     atom   15 type  1   force =    -0.14907865   -0.00000032    0.18751189
     atom   16 type  1   force =    -0.14619222   -0.00000064   -0.31464214
     atom   17 type  2   force =    -0.12076089   -0.00000007   -0.80444367
     atom   18 type  2   force =     0.60749220   -0.00000023    0.75946281
     atom   19 type  3   force =     0.04964024   -0.00000009   -0.32560733
     atom   20 type  3   force =    -0.04957942    0.00000009    0.32572347
     atom   21 type  2   force =    -0.60755466    0.00000029   -0.75958766
     atom   22 type  2   force =     0.12080190    0.00000003    0.80444653
     The core correction contribution to forces
     atom    1 type  1   force =     0.00000194   -0.00000001    0.00000041
     atom    2 type  1   force =    -0.00170815    0.00000008    0.00055724
     atom    3 type  1   force =    -0.00070397    0.00000005   -0.00157267
     atom    4 type  1   force =     0.00070903   -0.00000005    0.00156999
     atom    5 type  1   force =     0.00170426   -0.00000008   -0.00055151
     atom    6 type  2   force =     0.00211298    0.00000001    0.00538304
     atom    7 type  2   force =    -0.00160974    0.00000001   -0.00203734
     atom    8 type  3   force =    -0.00062682    0.00000001    0.00092199
     atom    9 type  3   force =     0.00062771   -0.00000001   -0.00092179
     atom   10 type  2   force =     0.00161305   -0.00000000    0.00203192
     atom   11 type  2   force =    -0.00212646   -0.00000001   -0.00537997
     atom   12 type  1   force =     0.00000196    0.00000001    0.00000040
     atom   13 type  1   force =    -0.00170813    0.00000007    0.00055723
     atom   14 type  1   force =    -0.00070400    0.00000003   -0.00157265
     atom   15 type  1   force =     0.00070905   -0.00000003    0.00156998
     atom   16 type  1   force =     0.00170428   -0.00000007   -0.00055152
     atom   17 type  2   force =     0.00211299    0.00000001    0.00538304
     atom   18 type  2   force =    -0.00160975   -0.00000002   -0.00203732
     atom   19 type  3   force =    -0.00062684    0.00000002    0.00092201
     atom   20 type  3   force =     0.00062768   -0.00000002   -0.00092178
     atom   21 type  2   force =     0.00161304    0.00000002    0.00203188
     atom   22 type  2   force =    -0.00212643   -0.00000002   -0.00538001
     The Hubbard contrib.    to forces
     atom    1 type  1   force =     0.00000000    0.00000000    0.00000000
     atom    2 type  1   force =     0.00000000    0.00000000    0.00000000
     atom    3 type  1   force =     0.00000000    0.00000000    0.00000000
     atom    4 type  1   force =     0.00000000    0.00000000    0.00000000
     atom    5 type  1   force =     0.00000000    0.00000000    0.00000000
     atom    6 type  2   force =     0.00000000    0.00000000    0.00000000
     atom    7 type  2   force =     0.00000000    0.00000000    0.00000000
     atom    8 type  3   force =     0.00000000    0.00000000    0.00000000
     atom    9 type  3   force =     0.00000000    0.00000000    0.00000000
     atom   10 type  2   force =     0.00000000    0.00000000    0.00000000
     atom   11 type  2   force =     0.00000000    0.00000000    0.00000000
     atom   12 type  1   force =     0.00000000    0.00000000    0.00000000
     atom   13 type  1   force =     0.00000000    0.00000000    0.00000000
     atom   14 type  1   force =     0.00000000    0.00000000    0.00000000
     atom   15 type  1   force =     0.00000000    0.00000000    0.00000000
     atom   16 type  1   force =     0.00000000    0.00000000    0.00000000
     atom   17 type  2   force =     0.00000000    0.00000000    0.00000000
     atom   18 type  2   force =     0.00000000    0.00000000    0.00000000
     atom   19 type  3   force =     0.00000000    0.00000000    0.00000000
     atom   20 type  3   force =     0.00000000    0.00000000    0.00000000
     atom   21 type  2   force =     0.00000000    0.00000000    0.00000000
     atom   22 type  2   force =     0.00000000    0.00000000    0.00000000
     The SCF correction term to forces
     atom    1 type  1   force =     0.00000003   -0.00000000   -0.00000000
     atom    2 type  1   force =     0.00000009   -0.00000000    0.00000007
     atom    3 type  1   force =     0.00000010   -0.00000000   -0.00000006
     atom    4 type  1   force =    -0.00000013    0.00000000    0.00000005
     atom    5 type  1   force =    -0.00000010    0.00000000   -0.00000007
     atom    6 type  2   force =     0.00000019    0.00000000   -0.00000019
     atom    7 type  2   force =     0.00000025    0.00000000    0.00000011
     atom    8 type  3   force =    -0.00000004    0.00000000   -0.00000001
     atom    9 type  3   force =    -0.00000002   -0.00000000    0.00000001
     atom   10 type  2   force =    -0.00000034   -0.00000000   -0.00000010
     atom   11 type  2   force =    -0.00000019    0.00000000    0.00000018
     atom   12 type  1   force =    -0.00000003    0.00000000    0.00000000
     atom   13 type  1   force =     0.00000005   -0.00000000    0.00000007
     atom   14 type  1   force =     0.00000009   -0.00000000   -0.00000005
     atom   15 type  1   force =    -0.00000006    0.00000000    0.00000006
     atom   16 type  1   force =    -0.00000004    0.00000000   -0.00000008
     atom   17 type  2   force =     0.00000009    0.00000000   -0.00000019
     atom   18 type  2   force =     0.00000028    0.00000000    0.00000011
     atom   19 type  3   force =    -0.00000001    0.00000000   -0.00000001
     atom   20 type  3   force =     0.00000007   -0.00000000    0.00000001
     atom   21 type  2   force =    -0.00000020   -0.00000000   -0.00000012
     atom   22 type  2   force =    -0.00000008   -0.00000000    0.00000019

     Total force =     0.003902     Total SCF correction =     0.000001


     Computing stress (Cartesian axis) and pressure

          total   stress  (Ry/bohr**3)                   (kbar)     P=   -3.08
  -0.00001299  -0.00000000  -0.00000428         -1.91     -0.00     -0.63
  -0.00000000  -0.00001040   0.00000000         -0.00     -1.53      0.00
  -0.00000428   0.00000000  -0.00003946         -0.63      0.00     -5.80

     kinetic stress (kbar)   1354.13     -0.00    -14.81
                               -0.00   1372.02     -0.00
                              -14.81     -0.00   1354.72

     local   stress (kbar)    -93.63     -0.00    -57.99
                               -0.00     58.46      0.00
                              -57.99      0.00    151.55

     nonloc. stress (kbar)   1079.24      0.00     -0.11
                                0.00   1066.99     -0.00
                               -0.11     -0.00   1074.27

     hartree stress (kbar)    181.70     -0.00      3.36
                               -0.00    167.15      0.00
                                3.36      0.00     93.01

     exc-cor stress (kbar)   1447.41      0.00      0.10
                                0.00   1446.75     -0.00
                                0.10     -0.00   1446.98

     corecor stress (kbar)  -2144.80     -0.00      0.27
                               -0.00  -2143.14      0.00
                                0.27      0.00  -2143.98

     ewald   stress (kbar)  -1825.94     -0.00     68.55
                               -0.00  -1969.77     -0.00
                               68.55     -0.00  -1982.36

     hubbard stress (kbar)      0.00      0.00      0.00
                                0.00      0.00      0.00
                                0.00      0.00      0.00

     london  stress (kbar)      0.00      0.00      0.00
                                0.00      0.00      0.00
                                0.00      0.00      0.00

     DFT-D3  stress (kbar)      0.00      0.00      0.00
                                0.00      0.00      0.00
                                0.00      0.00      0.00

     XDM     stress (kbar)      0.00      0.00      0.00
                                0.00      0.00      0.00
                                0.00      0.00      0.00

     dft-nl  stress (kbar)      0.00      0.00      0.00
                                0.00      0.00      0.00
                                0.00      0.00      0.00

     TS-vdW  stress (kbar)      0.00      0.00      0.00
                                0.00      0.00      0.00
                                0.00      0.00      0.00



     Writing output data file aiida.save/
 
     init_run     :     23.89s CPU     24.33s WALL (       1 calls)
     electrons    :    833.79s CPU    845.55s WALL (       1 calls)
     forces       :      9.68s CPU      9.76s WALL (       1 calls)
     stress       :     66.27s CPU     66.35s WALL (       1 calls)

     Called by init_run:
     wfcinit      :     21.28s CPU     21.63s WALL (       1 calls)
     wfcinit:atom :      0.18s CPU      0.19s WALL (     196 calls)
     wfcinit:wfcr :     19.72s CPU     20.00s WALL (     196 calls)
     potinit      :      0.91s CPU      0.92s WALL (       1 calls)
     hinit0       :      1.53s CPU      1.56s WALL (       1 calls)

     Called by electrons:
     c_bands      :    743.95s CPU    752.57s WALL (      19 calls)
     sum_band     :     83.11s CPU     85.24s WALL (      19 calls)
     v_of_rho     :      1.88s CPU      1.94s WALL (      20 calls)
     v_h          :      0.13s CPU      0.14s WALL (      20 calls)
     v_xc         :      1.90s CPU      1.96s WALL (      22 calls)
     newd         :      1.59s CPU      2.50s WALL (      20 calls)
     PAW_pot      :      2.53s CPU      2.54s WALL (      20 calls)
     mix_rho      :      0.69s CPU      0.71s WALL (      19 calls)

     Called by c_bands:
     init_us_2    :     26.76s CPU     27.10s WALL (    8036 calls)
     cegterg      :    580.06s CPU    587.51s WALL (    3724 calls)

     Called by sum_band:
     sum_band:bec :      0.49s CPU      0.49s WALL (    3724 calls)
     addusdens    :      1.52s CPU      2.50s WALL (      19 calls)

     Called by *egterg:
     h_psi        :    401.10s CPU    407.18s WALL (   16949 calls)
     s_psi        :     58.18s CPU     58.37s WALL (   16949 calls)
     g_psi        :      2.82s CPU      2.84s WALL (   13029 calls)
     cdiaghg      :     60.23s CPU     61.22s WALL (   16753 calls)
     cegterg:over :     29.76s CPU     29.94s WALL (   13029 calls)
     cegterg:upda :     23.73s CPU     23.96s WALL (   13029 calls)
     cegterg:last :     10.00s CPU     10.06s WALL (    4245 calls)
     cdiaghg:chol :      3.80s CPU      3.84s WALL (   16753 calls)
     cdiaghg:inve :      0.81s CPU      0.82s WALL (   16753 calls)
     cdiaghg:para :      7.77s CPU      7.84s WALL (   33506 calls)

     Called by h_psi:
     h_psi:pot    :    398.92s CPU    404.99s WALL (   16949 calls)
     h_psi:calbec :     57.87s CPU     58.54s WALL (   16949 calls)
     vloc_psi     :    281.94s CPU    287.17s WALL (   16949 calls)
     add_vuspsi   :     58.95s CPU     59.16s WALL (   16949 calls)

     General routines
     calbec       :     80.56s CPU     81.45s WALL (   21653 calls)
     fft          :      1.65s CPU      1.71s WALL (     284 calls)
     ffts         :      0.23s CPU      0.24s WALL (     315 calls)
     fftw         :    298.66s CPU    304.12s WALL (  979566 calls)
     interpolate  :      0.16s CPU      0.16s WALL (      20 calls)
 
     Parallel routines
     fft_scatt_xy :     38.01s CPU     38.75s WALL (  980165 calls)
     fft_scatt_yz :    115.85s CPU    118.13s WALL (  980165 calls)

     PAW routines
     PAW_pot      :      2.53s CPU      2.54s WALL (      20 calls)
 
     PWSCF        :  15m57.49s CPU  16m23.72s WALL

 
   This run was terminated on:   8:51:28  22Feb2020            

=------------------------------------------------------------------------------=
   JOB DONE.
=------------------------------------------------------------------------------=
