begin
comment uuid: 214987d9-9043-440d-af0a-812ec59364b7 parent_uuid: 00284ee1-6af0-439a-857f-64d2dfa5a7e3 trajectory_step: final_scf
lattice     27.5527528197     0.0000000001    -7.7470896341
lattice     -0.0000000000     7.6924135872    -0.0000000000
lattice     -0.0954778882     0.0000000000    12.5688256965
atom     -0.0555227577     0.0000000236    12.4140360192   Al  0.0 0.0    4.56247024e-13  3.07980586e-13 -3.65580657e-12
atom      2.0097217442     3.8462068172     3.6167320521   Mg  0.0 0.0    1.85056869e-07  2.38667458e-13  5.57359757e-07
atom      4.1611356265     3.8462068172    10.1206735799   Mg  0.0 0.0   -4.80799519e-07  1.87744900e-13  6.48165621e-07
atom      9.5996731558     0.0000000237    -1.7349720548   Mg  0.0 0.0    4.80801420e-07 -2.06710232e-13 -6.48171821e-07
atom     11.7510870388     0.0000000237     4.7689694726   Mg  0.0 0.0   -1.85058405e-07 -2.42491160e-13 -5.57365787e-07
atom      1.5292288705     0.0000000236     7.7495892699   Si  0.0 0.0    1.01059031e-06  2.61242673e-13  3.94168492e-07
atom      5.0447751295     0.0000000236     1.1297609799   Si  0.0 0.0    8.73104542e-07  9.90046863e-14  4.15926743e-07
atom      5.8975289651     0.0000000236     5.9059673438   Al  0.0 0.0    7.04070679e-10 -1.42220418e-14 -5.60057575e-07
atom      7.8632798177     3.8462068173     2.4797341813   Al  0.0 0.0   -7.02481258e-10 -6.85234817e-15  5.60050390e-07
atom      8.7160336532     3.8462068173     7.2559405452   Si  0.0 0.0   -8.73104079e-07 -1.18885463e-13 -4.15933794e-07
atom     12.2315799121     3.8462068173     0.6361122543   Si  0.0 0.0   -1.01059389e-06 -2.73960421e-13 -3.94173007e-07
atom     13.7208536522     3.8462068174     8.5404912013   Al  0.0 0.0    5.07738562e-13 -3.07751399e-13  9.55464874e-13
atom     15.7860981538     0.0000000237    -0.2568127665   Mg  0.0 0.0    1.85059219e-07 -2.47660878e-13  5.57368647e-07
atom     17.9375120368     0.0000000237     6.2471287612   Mg  0.0 0.0   -4.80802407e-07 -1.60834399e-13  6.48175873e-07
atom     23.3760495664     3.8462068173    -5.6085168727   Mg  0.0 0.0    4.80796252e-07  1.79990865e-13 -6.48166264e-07
atom     25.5274634485     3.8462068173     0.8954246557   Mg  0.0 0.0   -1.85057054e-07  2.51213332e-13 -5.57366738e-07
atom     15.3056052804     3.8462068173     3.8760444518   Si  0.0 0.0    1.01059257e-06 -2.28500045e-13  3.94176862e-07
atom     18.8211515394     3.8462068173    -2.7437838388   Si  0.0 0.0    8.73104517e-07 -7.99675895e-14  4.15936872e-07
atom     19.6739053749     3.8462068173     2.0324225251   Al  0.0 0.0    7.04350001e-10  5.92824531e-15 -5.60047592e-07
atom     21.6396562274     0.0000000237    -1.3938106368   Al  0.0 0.0   -7.02017728e-10  1.52516340e-14  5.60057772e-07
atom     22.4924100631     0.0000000237     3.3823957272   Si  0.0 0.0   -8.73103592e-07  9.97689555e-14 -4.15927771e-07
atom     26.0079563222     0.0000000237    -3.2374325622   Si  0.0 0.0   -1.01059165e-06  2.41027768e-13 -3.94173981e-07
energy -2.986854625286261e+02
charge 0.0000
end
