begin
comment uuid: 214987d9-9043-440d-af0a-812ec59364b7 parent_uuid: 00284ee1-6af0-439a-857f-64d2dfa5a7e3 trajectory_step: final_scf
lattice     27.5573265688     0.0000000001    -7.8066460909
lattice     -0.0000000000     7.6738247159    -0.0000000000
lattice     -0.1138120834     0.0000000000    12.5995385560
atom     -0.0736406487     0.0000000235    12.4443133371   Al  0.0 0.0   -3.69570409e-14  2.15100842e-13 -3.20390153e-12
atom      2.0108348414     3.8369123815     3.6056908907   Mg  0.0 0.0    2.83538813e-07  1.62263786e-13  6.12573943e-07
atom      4.1689647055     3.8369123815    10.1383186493   Mg  0.0 0.0   -6.09389446e-07  1.41459373e-13  4.97388295e-07
atom      9.5762293644     0.0000000236    -1.7525535765   Mg  0.0 0.0    6.09391250e-07 -1.57956264e-13 -4.97394254e-07
atom     11.7343592292     0.0000000236     4.7800741818   Mg  0.0 0.0   -2.83539851e-07 -1.65035775e-13 -6.12579302e-07
atom      1.5068311421     0.0000000235     7.7725290899   Si  0.0 0.0    1.42414795e-06  1.97813039e-13  4.37845821e-07
atom      5.0415439665     0.0000000236     1.1280329640   Si  0.0 0.0    1.55907454e-06  7.55465459e-14  4.87769055e-07
atom      5.8536334989     0.0000000236     5.9121412581   Al  0.0 0.0   -1.01134693e-07 -1.19136132e-14 -8.57380606e-07
atom      7.8915605716     3.8369123815     2.4736238148   Al  0.0 0.0    1.01134306e-07 -5.76501157e-15  8.57374908e-07
atom      8.7036501039     3.8369123816     7.2577321088   Si  0.0 0.0   -1.55907406e-06 -9.18590580e-14 -4.87774736e-07
atom     12.2383629281     3.8369123816     0.6132359822   Si  0.0 0.0   -1.42414558e-06 -2.09740051e-13 -4.37847965e-07
atom     13.7050226357     3.8369123816     8.5409902907   Al  0.0 0.0    2.27762366e-15 -2.15370689e-13  1.99024025e-12
atom     15.7894981256     0.0000000236    -0.2976321563   Mg  0.0 0.0    2.83540356e-07 -1.77476715e-13  6.12583003e-07
atom     17.9476279903     0.0000000237     6.2349956023   Mg  0.0 0.0   -6.09391543e-07 -1.01845545e-13  4.97397843e-07
atom     23.3548926496     3.8369123816    -5.6558766226   Mg  0.0 0.0    6.09386683e-07  1.18477310e-13 -4.97389623e-07
atom     25.5130225135     3.8369123816     0.8767511367   Mg  0.0 0.0   -2.83539221e-07  1.80318655e-13 -6.12580945e-07
atom     15.2854944266     3.8369123816     3.8692060433   Si  0.0 0.0    1.42414644e-06 -1.48611935e-13  4.37851302e-07
atom     18.8202072510     3.8369123816    -2.7752900830   Si  0.0 0.0    1.55907416e-06 -5.04650171e-14  4.87778043e-07
atom     19.6322967833     3.8369123816     2.0088182111   Al  0.0 0.0   -1.01134226e-07  8.42535203e-16 -8.57371760e-07
atom     21.6702238558     0.0000000236    -1.4296992315   Al  0.0 0.0    1.01135782e-07  1.69269042e-14  8.57380392e-07
atom     22.4823133883     0.0000000237     3.3544090627   Si  0.0 0.0   -1.55907365e-06  6.72199776e-14 -4.87770031e-07
atom     26.0170262128     0.0000000236    -3.2900870626   Si  0.0 0.0   -1.42414797e-06  1.59706721e-13 -4.37852172e-07
energy -2.986864421963667e+02
charge 0.0000
end
