begin
comment uuid: 214987d9-9043-440d-af0a-812ec59364b7 parent_uuid: 00284ee1-6af0-439a-857f-64d2dfa5a7e3 trajectory_step: final_scf
lattice     27.5573265689     0.0000000001    -7.8066460909
lattice     -0.0000000000     7.6738247159    -0.0000000000
lattice     -0.1138120834     0.0000000000    12.5995385560
atom     -0.0736406487     0.0000000235    12.4443133371   Al  0.0 0.0   -4.53057880e-14  2.15271407e-13 -3.20003969e-12
atom      2.0108348414     3.8369123815     3.6056908907   Mg  0.0 0.0    2.83538809e-07  1.62268105e-13  6.12573932e-07
atom      4.1689647055     3.8369123815    10.1383186493   Mg  0.0 0.0   -6.09389441e-07  1.41447769e-13  4.97388276e-07
atom      9.5762293645     0.0000000236    -1.7525535765   Mg  0.0 0.0    6.09391253e-07 -1.58069582e-13 -4.97394267e-07
atom     11.7343592292     0.0000000236     4.7800741818   Mg  0.0 0.0   -2.83539856e-07 -1.65127838e-13 -6.12579309e-07
atom      1.5068311422     0.0000000235     7.7725290899   Si  0.0 0.0    1.42414799e-06  1.98128258e-13  4.37845836e-07
atom      5.0415439665     0.0000000236     1.1280329640   Si  0.0 0.0    1.55907454e-06  7.58256006e-14  4.87769033e-07
atom      5.8536334989     0.0000000236     5.9121412581   Al  0.0 0.0   -1.01134708e-07 -1.11185475e-14 -8.57380611e-07
atom      7.8915605716     3.8369123815     2.4736238148   Al  0.0 0.0    1.01134293e-07 -6.32511304e-15  8.57374886e-07
atom      8.7036501039     3.8369123816     7.2577321088   Si  0.0 0.0   -1.55907406e-06 -9.32782890e-14 -4.87774746e-07
atom     12.2383629282     3.8369123816     0.6132359822   Si  0.0 0.0   -1.42414555e-06 -2.09631929e-13 -4.37847944e-07
atom     13.7050226358     3.8369123816     8.5409902907   Al  0.0 0.0    5.82208504e-15 -2.14393217e-13  1.98643627e-12
atom     15.7894981256     0.0000000236    -0.2976321563   Mg  0.0 0.0    2.83540361e-07 -1.77348751e-13  6.12583011e-07
atom     17.9476279903     0.0000000237     6.2349956023   Mg  0.0 0.0   -6.09391550e-07 -1.01997980e-13  4.97397861e-07
atom     23.3548926497     3.8369123816    -5.6558766226   Mg  0.0 0.0    6.09386677e-07  1.18346552e-13 -4.97389607e-07
atom     25.5130225135     3.8369123816     0.8767511367   Mg  0.0 0.0   -2.83539219e-07  1.80547513e-13 -6.12580932e-07
atom     15.2854944267     3.8369123816     3.8692060433   Si  0.0 0.0    1.42414641e-06 -1.48941249e-13  4.37851280e-07
atom     18.8202072510     3.8369123816    -2.7752900829   Si  0.0 0.0    1.55907417e-06 -5.14759888e-14  4.87778068e-07
atom     19.6322967833     3.8369123816     2.0088182111   Al  0.0 0.0   -1.01134209e-07  1.54677792e-16 -8.57371746e-07
atom     21.6702238559     0.0000000236    -1.4296992315   Al  0.0 0.0    1.01135791e-07  1.76167183e-14  8.57380410e-07
atom     22.4823133883     0.0000000237     3.3544090627   Si  0.0 0.0   -1.55907365e-06  6.74002586e-14 -4.87770019e-07
atom     26.0170262128     0.0000000236    -3.2900870625   Si  0.0 0.0   -1.42414800e-06  1.60013306e-13 -4.37852196e-07
energy -2.986864421963667e+02
charge 0.0000
end
