begin
comment uuid: 214987d9-9043-440d-af0a-812ec59364b7 parent_uuid: 00284ee1-6af0-439a-857f-64d2dfa5a7e3 trajectory_step: final_scf
lattice     27.5440206336     0.0000000001    -7.7457837109
lattice     -0.0000000000     7.6981086976    -0.0000000000
lattice     -0.0894978816     0.0000000000    12.5876286111
atom     -0.0496235145     0.0000000236    12.4326255579   Al  0.0 0.0   -6.82267393e-13  3.41771183e-13 -6.45611112e-12
atom      1.9954516276     3.8490543724     3.6447803476   Mg  0.0 0.0    2.39941626e-07  2.60860852e-13  3.44851904e-07
atom      4.1376077917     3.8490543724    10.1603709780   Mg  0.0 0.0   -1.02214078e-06  2.33574672e-13  7.82341702e-07
atom      9.6246533775     0.0000000237    -1.7556403289   Mg  0.0 0.0    1.02213495e-06 -2.53278223e-13 -7.82343004e-07
atom     11.7668095419     0.0000000237     4.7599503021   Mg  0.0 0.0   -2.39942920e-07 -2.64489919e-13 -3.44869091e-07
atom      1.5367280870     0.0000000236     7.7668600486   Si  0.0 0.0    4.02219814e-07  3.18226764e-13 -3.36147094e-07
atom      5.0720097653     0.0000000236     1.1523853151   Si  0.0 0.0   -8.72264285e-07  1.24462462e-13 -1.53257508e-06
atom      5.9106261389     0.0000000237     5.9243261395   Al  0.0 0.0   -8.67335296e-07 -4.10397440e-14  2.87868563e-07
atom      7.8516350301     3.8490543725     2.4804045096   Al  0.0 0.0    8.67339528e-07  1.92043600e-14 -2.87869500e-07
atom      8.6902514037     3.8490543725     7.2523453340   Si  0.0 0.0    8.72267201e-07 -1.45045217e-13  1.53257343e-06
atom     12.2255330819     3.8490543725     0.6378706003   Si  0.0 0.0   -4.02218542e-07 -3.31520568e-13  3.36138167e-07
atom     13.7223868023     3.8490543726     8.5597337019   Al  0.0 0.0   -6.91636358e-13 -3.41045878e-13 -3.73154264e-12
atom     15.7674619441     0.0000000237    -0.2281115091   Mg  0.0 0.0    2.39943816e-07 -2.80647615e-13  3.44859256e-07
atom     17.9096181091     0.0000000238     6.2874791208   Mg  0.0 0.0   -1.02214415e-06 -1.75634720e-13  7.82352480e-07
atom     23.3966636950     3.8490543725    -5.6285321857   Mg  0.0 0.0    1.02213044e-06  1.95144157e-13 -7.82335141e-07
atom     25.5388198585     3.8490543725     0.8870584464   Mg  0.0 0.0   -2.39941180e-07  2.84302429e-13 -3.44867514e-07
atom     15.3087384040     3.8490543725     3.8939681923   Si  0.0 0.0    4.02219048e-07 -2.32395586e-13 -3.36142257e-07
atom     18.8440200820     3.8490543725    -2.7205065421   Si  0.0 0.0   -8.72263632e-07 -8.92659058e-14 -1.53256474e-06
atom     19.6826364556     3.8490543725     2.0514342822   Al  0.0 0.0   -8.67334115e-07  1.47012051e-14  2.87879386e-07
atom     21.6236453467     0.0000000237    -1.3924873473   Al  0.0 0.0    8.67341043e-07  6.95383180e-15 -2.87860177e-07
atom     22.4622617205     0.0000000237     3.3794534772   Si  0.0 0.0    8.72268110e-07  1.10425241e-13  1.53258145e-06
atom     25.9975433990     0.0000000237    -3.2350212550   Si  0.0 0.0   -4.02219311e-07  2.45135336e-13  3.36137438e-07
energy -2.986849476884325e+02
charge 0.0000
end
