begin
comment uuid: 214987d9-9043-440d-af0a-812ec59364b7 parent_uuid: 00284ee1-6af0-439a-857f-64d2dfa5a7e3 trajectory_step: final_scf
lattice     27.5265852588     0.0000000001    -7.7704212900
lattice     -0.0000000000     7.7258128455    -0.0000000000
lattice     -0.1063416974     0.0000000000    12.5673804210
atom     -0.0662991284     0.0000000237    12.4125743775   Al  0.0 0.0    3.45053631e-12  2.61185552e-13 -6.09426353e-12
atom      1.9981527342     3.8629064464     3.6030230896   Mg  0.0 0.0    8.12884399e-07  2.01894222e-13  6.40204739e-07
atom      4.1364212636     3.8629064465    10.1258610788   Mg  0.0 0.0   -3.41677631e-07  1.69125409e-13  2.85834953e-07
atom      9.6006148062     0.0000000238    -1.7533033892   Mg  0.0 0.0    3.41677007e-07 -1.86850246e-13 -2.85835868e-07
atom     11.7388833362     0.0000000238     4.7695346000   Mg  0.0 0.0   -8.12883719e-07 -2.04402702e-13 -6.40215583e-07
atom      1.5200142773     0.0000000237     7.7506313988   Si  0.0 0.0   -1.35741234e-06  2.33264238e-13 -1.16413466e-06
atom      5.0675309914     0.0000000237     1.1384488780   Si  0.0 0.0   -1.20569248e-06  8.77958461e-14 -1.40229716e-06
atom      5.8867462891     0.0000000237     5.9094981569   Al  0.0 0.0   -7.23152626e-07 -2.60296474e-14  1.35308847e-06
atom      7.8502897810     3.8629064465     2.4630595330   Al  0.0 0.0    7.23159961e-07  7.40738722e-15 -1.35309523e-06
atom      8.6695050787     3.8629064465     7.2341088117   Si  0.0 0.0    1.20569180e-06 -1.05618693e-13  1.40228680e-06
atom     12.2170217928     3.8629064466     0.6219262902   Si  0.0 0.0    1.35740297e-06 -2.45696620e-13  1.16413738e-06
atom     13.6969935010     3.8629064466     8.5273637324   Al  0.0 0.0    3.51935598e-12 -2.61013917e-13 -5.72892316e-12
atom     15.7614453633     0.0000000238    -0.2821875563   Mg  0.0 0.0    8.12886523e-07 -2.10594046e-13  6.40209868e-07
atom     17.8997138936     0.0000000238     6.2406504324   Mg  0.0 0.0   -3.41681022e-07 -1.30135469e-13  2.85843648e-07
atom     23.3639074361     3.8629064465    -5.6385140355   Mg  0.0 0.0    3.41673292e-07  1.47851316e-13 -2.85828004e-07
atom     25.5021759652     3.8629064465     0.8843239544   Mg  0.0 0.0   -8.12881985e-07  2.13482954e-13 -6.40211929e-07
atom     15.2833069068     3.8629064466     3.8654207534   Si  0.0 0.0   -1.35741364e-06 -1.75815294e-13 -1.16413170e-06
atom     18.8308236207     3.8629064465    -2.7467617684   Si  0.0 0.0   -1.20569205e-06 -6.38734115e-14 -1.40228835e-06
atom     19.6500389183     3.8629064466     2.0242875103   Al  0.0 0.0   -7.23151038e-07  2.79427950e-15  1.35309750e-06
atom     21.6135824102     0.0000000238    -1.4221511135   Al  0.0 0.0    7.23160574e-07  1.59272292e-14 -1.35308597e-06
atom     22.4327977080     0.0000000238     3.3488981654   Si  0.0 0.0    1.20569217e-06  8.08670134e-14  1.40229469e-06
atom     25.9803144224     0.0000000238    -3.2632843550   Si  0.0 0.0    1.35740286e-06  1.88383330e-13  1.16413823e-06
energy -2.986852292554426e+02
charge 0.0000
end
