begin
comment uuid: 214987d9-9043-440d-af0a-812ec59364b7 parent_uuid: 00284ee1-6af0-439a-857f-64d2dfa5a7e3 trajectory_step: final_scf
lattice     27.5573265688     0.0000000001    -7.8066460909
lattice     -0.0000000000     7.6738247159    -0.0000000000
lattice     -0.1138120834     0.0000000000    12.5995385560
atom     -0.0736406487     0.0000000235    12.4443133371   Al  0.0 0.0   -3.86127628e-14  2.14116320e-13 -3.18964198e-12
atom      2.0108348414     3.8369123815     3.6056908907   Mg  0.0 0.0    2.83538816e-07  1.62343671e-13  6.12573948e-07
atom      4.1689647055     3.8369123815    10.1383186493   Mg  0.0 0.0   -6.09389443e-07  1.41614420e-13  4.97388296e-07
atom      9.5762293644     0.0000000236    -1.7525535765   Mg  0.0 0.0    6.09391246e-07 -1.58290409e-13 -4.97394256e-07
atom     11.7343592292     0.0000000236     4.7800741818   Mg  0.0 0.0   -2.83539853e-07 -1.65419274e-13 -6.12579306e-07
atom      1.5068311421     0.0000000235     7.7725290899   Si  0.0 0.0    1.42414796e-06  1.97942581e-13  4.37845821e-07
atom      5.0415439665     0.0000000236     1.1280329640   Si  0.0 0.0    1.55907454e-06  7.54008097e-14  4.87769053e-07
atom      5.8536334989     0.0000000236     5.9121412581   Al  0.0 0.0   -1.01134693e-07 -1.17694977e-14 -8.57380605e-07
atom      7.8915605716     3.8369123815     2.4736238148   Al  0.0 0.0    1.01134303e-07 -5.55372887e-15  8.57374911e-07
atom      8.7036501039     3.8369123816     7.2577321088   Si  0.0 0.0   -1.55907406e-06 -9.22304053e-14 -4.87774733e-07
atom     12.2383629281     3.8369123816     0.6132359822   Si  0.0 0.0   -1.42414558e-06 -2.09112533e-13 -4.37847968e-07
atom     13.7050226357     3.8369123816     8.5409902907   Al  0.0 0.0    4.37602528e-15 -2.14565890e-13  1.98242187e-12
atom     15.7894981256     0.0000000236    -0.2976321563   Mg  0.0 0.0    2.83540357e-07 -1.77604723e-13  6.12583003e-07
atom     17.9476279903     0.0000000237     6.2349956023   Mg  0.0 0.0   -6.09391542e-07 -1.02149694e-13  4.97397841e-07
atom     23.3548926496     3.8369123816    -5.6558766226   Mg  0.0 0.0    6.09386681e-07  1.18268287e-13 -4.97389619e-07
atom     25.5130225135     3.8369123816     0.8767511367   Mg  0.0 0.0   -2.83539224e-07  1.80671658e-13 -6.12580944e-07
atom     15.2854944266     3.8369123816     3.8692060433   Si  0.0 0.0    1.42414645e-06 -1.48601729e-13  4.37851295e-07
atom     18.8202072510     3.8369123816    -2.7752900830   Si  0.0 0.0    1.55907416e-06 -5.04534132e-14  4.87778044e-07
atom     19.6322967833     3.8369123816     2.0088182111   Al  0.0 0.0   -1.01134230e-07  6.09291020e-16 -8.57371760e-07
atom     21.6702238558     0.0000000236    -1.4296992315   Al  0.0 0.0    1.01135783e-07  1.68097767e-14  8.57380395e-07
atom     22.4823133883     0.0000000237     3.3544090627   Si  0.0 0.0   -1.55907365e-06  6.75978106e-14 -4.87770033e-07
atom     26.0170262128     0.0000000236    -3.2900870626   Si  0.0 0.0   -1.42414798e-06  1.60160121e-13 -4.37852175e-07
energy -2.986864421963667e+02
charge 0.0000
end
