begin
comment uuid: 214987d9-9043-440d-af0a-812ec59364b7 parent_uuid: 00284ee1-6af0-439a-857f-64d2dfa5a7e3 trajectory_step: final_scf
lattice     27.5527528197     0.0000000001    -7.7470896341
lattice     -0.0000000000     7.6924135872    -0.0000000000
lattice     -0.0954778882     0.0000000000    12.5688256965
atom     -0.0555227577     0.0000000236    12.4140360192   Al  0.0 0.0    4.56189625e-13  3.07451622e-13 -3.65262869e-12
atom      2.0097217442     3.8462068172     3.6167320521   Mg  0.0 0.0    1.85056871e-07  2.38530359e-13  5.57359758e-07
atom      4.1611356265     3.8462068172    10.1206735799   Mg  0.0 0.0   -4.80799517e-07  1.87428094e-13  6.48165622e-07
atom      9.5996731558     0.0000000237    -1.7349720548   Mg  0.0 0.0    4.80801419e-07 -2.06600602e-13 -6.48171824e-07
atom     11.7510870388     0.0000000237     4.7689694726   Mg  0.0 0.0   -1.85058407e-07 -2.42169986e-13 -5.57365786e-07
atom      1.5292288705     0.0000000236     7.7495892699   Si  0.0 0.0    1.01059031e-06  2.60292695e-13  3.94168498e-07
atom      5.0447751295     0.0000000236     1.1297609799   Si  0.0 0.0    8.73104543e-07  9.72218587e-14  4.15926742e-07
atom      5.8975289651     0.0000000236     5.9059673438   Al  0.0 0.0    7.04076914e-10 -1.61724645e-14 -5.60057579e-07
atom      7.8632798178     3.8462068173     2.4797341813   Al  0.0 0.0   -7.02485608e-10 -4.95657618e-15  5.60050391e-07
atom      8.7160336532     3.8462068173     7.2559405452   Si  0.0 0.0   -8.73104078e-07 -1.16755525e-13 -4.15933794e-07
atom     12.2315799121     3.8462068173     0.6361122543   Si  0.0 0.0   -1.01059389e-06 -2.73039798e-13 -3.94173013e-07
atom     13.7208536522     3.8462068174     8.5404912013   Al  0.0 0.0    5.08965067e-13 -3.07487195e-13  9.56405082e-13
atom     15.7860981538     0.0000000237    -0.2568127665   Mg  0.0 0.0    1.85059220e-07 -2.47302202e-13  5.57368650e-07
atom     17.9375120368     0.0000000237     6.2471287612   Mg  0.0 0.0   -4.80802406e-07 -1.60787620e-13  6.48175871e-07
atom     23.3760495664     3.8462068173    -5.6085168727   Mg  0.0 0.0    4.80796252e-07  1.80169795e-13 -6.48166264e-07
atom     25.5274634485     3.8462068173     0.8954246557   Mg  0.0 0.0   -1.85057053e-07  2.50727549e-13 -5.57366741e-07
atom     15.3056052804     3.8462068173     3.8760444518   Si  0.0 0.0    1.01059258e-06 -2.27818151e-13  3.94176863e-07
atom     18.8211515394     3.8462068173    -2.7437838388   Si  0.0 0.0    8.73104515e-07 -7.80575139e-14  4.15936872e-07
atom     19.6739053749     3.8462068173     2.0324225251   Al  0.0 0.0    7.04343093e-10  7.57609901e-15 -5.60047591e-07
atom     21.6396562274     0.0000000237    -1.3938106368   Al  0.0 0.0   -7.02010436e-10  1.34677271e-14  5.60057770e-07
atom     22.4924100631     0.0000000237     3.3823957272   Si  0.0 0.0   -8.73103590e-07  9.79888272e-14 -4.15927772e-07
atom     26.0079563222     0.0000000237    -3.2374325621   Si  0.0 0.0   -1.01059166e-06  2.39857569e-13 -3.94173976e-07
energy -2.986854625286261e+02
charge 0.0000
end
