begin
comment uuid: 214987d9-9043-440d-af0a-812ec59364b7 parent_uuid: 00284ee1-6af0-439a-857f-64d2dfa5a7e3 trajectory_step: final_scf
lattice     27.4804473944     0.0000000001    -7.7501369256
lattice     -0.0000000000     7.7736429505    -0.0000000000
lattice     -0.1110799600     0.0000000000    12.5174818171
atom     -0.0710482370     0.0000000237    12.3632755353   Al  0.0 0.0       0.0000000004     0.0000000000    -0.0000000013
atom      1.9719688945     3.8868214990     3.6155487727   Mg  0.0 0.0       0.0000006825     0.0000000000     0.0000002923
atom      4.1163782119     3.8868214990    10.0809998397   Mg  0.0 0.0       0.0000004207     0.0000000000     0.0000002673
atom      9.5928289816     0.0000000240    -1.7469990751   Mg  0.0 0.0      -0.0000004208    -0.0000000000    -0.0000002670
atom     11.7372382965     0.0000000240     4.7184519972   Mg  0.0 0.0      -0.0000006824    -0.0000000000    -0.0000002924
atom      1.5460858968     0.0000000238     7.7173554049   Si  0.0 0.0      -0.0000013850     0.0000000000     0.0000000913
atom      5.0450917814     0.0000000238     1.1513223021   Si  0.0 0.0       0.0000005102     0.0000000000     0.0000003034
atom      5.9533762020     0.0000000239     5.9113640155   Al  0.0 0.0       0.0000008407    -0.0000000000     0.0000000167
atom      7.7558309677     3.8868214991     2.4226367471   Al  0.0 0.0      -0.0000008382     0.0000000000    -0.0000000163
atom      8.6641154136     3.8868214992     7.1826784773   Si  0.0 0.0      -0.0000005107    -0.0000000000    -0.0000003049
atom     12.1631213152     3.8868214992     0.6166453461   Si  0.0 0.0       0.0000013826    -0.0000000000    -0.0000000893
atom     13.6691754602     3.8868214993     8.4882070705   Al  0.0 0.0       0.0000000004    -0.0000000000    -0.0000000013
atom     15.7121925908     0.0000000240    -0.2595196938   Mg  0.0 0.0       0.0000006825    -0.0000000000     0.0000002923
atom     17.8566019098     0.0000000240     6.2059313729   Mg  0.0 0.0       0.0000004207    -0.0000000000     0.0000002673
atom     23.3330526807     3.8868214991    -5.6220675399   Mg  0.0 0.0      -0.0000004209     0.0000000000    -0.0000002670
atom     25.4774619935     3.8868214991     0.8433835353   Mg  0.0 0.0      -0.0000006824     0.0000000000    -0.0000002924
atom     15.2863095943     3.8868214992     3.8422869392   Si  0.0 0.0      -0.0000013850    -0.0000000000     0.0000000913
atom     18.7853154786     3.8868214992    -2.7237461644   Si  0.0 0.0       0.0000005102    -0.0000000000     0.0000003034
atom     19.6935998987     3.8868214992     2.0362955489   Al  0.0 0.0       0.0000008407     0.0000000000     0.0000000168
atom     21.4960546645     0.0000000239    -1.4524317185   Al  0.0 0.0      -0.0000008382    -0.0000000000    -0.0000000162
atom     22.4043391105     0.0000000239     3.3076100124   Si  0.0 0.0      -0.0000005107     0.0000000000    -0.0000003049
atom     25.9033450128     0.0000000239    -3.2584231152   Si  0.0 0.0       0.0000013826     0.0000000000    -0.0000000893
energy -298.684431067
charge 0.0000
end
