begin
comment uuid: 214987d9-9043-440d-af0a-812ec59364b7 parent_uuid: 00284ee1-6af0-439a-857f-64d2dfa5a7e3 trajectory_step: final_scf
lattice     27.5688331762     0.0000000001    -7.8023485637
lattice     -0.0000000000     7.7118978250    -0.0000000000
lattice     -0.1201823646     0.0000000000    12.5705613228
atom     -0.0799217859     0.0000000236    12.4156738386   Al  0.0 0.0      -0.0000000000     0.0000000000    -0.0000000000
atom      1.9886763458     3.8559489361     3.6111337366   Mg  0.0 0.0      -0.0000001072     0.0000000000     0.0000004949
atom      4.1256982590     3.8559489362    10.1434340508   Mg  0.0 0.0      -0.0000015976     0.0000000000     0.0000001235
atom      9.6190571213     0.0000000237    -1.7838219783   Mg  0.0 0.0       0.0000015976    -0.0000000000    -0.0000001235
atom     11.7560790350     0.0000000237     4.7484783364   Mg  0.0 0.0       0.0000001072    -0.0000000000    -0.0000004949
atom      1.5092189623     0.0000000236     7.7616399595   Si  0.0 0.0       0.0000011281     0.0000000000     0.0000009595
atom      5.1015200737     0.0000000237     1.1539498945   Si  0.0 0.0      -0.0000001703     0.0000000000    -0.0000014575
atom      5.8702341958     0.0000000237     5.9254058600   Al  0.0 0.0      -0.0000009409    -0.0000000000    -0.0000007180
atom      7.8745211848     3.8559489362     2.4342062126   Al  0.0 0.0       0.0000009409     0.0000000000     0.0000007180
atom      8.6432353068     3.8559489362     7.2056621780   Si  0.0 0.0       0.0000001703    -0.0000000000     0.0000014574
atom     12.2355364180     3.8559489363     0.5979721124   Si  0.0 0.0      -0.0000011281    -0.0000000000    -0.0000009595
atom     13.7044948022     3.8559489363     8.5144995562   Al  0.0 0.0      -0.0000000000    -0.0000000000    -0.0000000000
atom     15.7730929337     0.0000000238    -0.2900405465   Mg  0.0 0.0      -0.0000001072    -0.0000000000     0.0000004949
atom     17.9101148477     0.0000000238     6.2422597673   Mg  0.0 0.0      -0.0000015976    -0.0000000000     0.0000001235
atom     23.4034737101     3.8559489362    -5.6849962613   Mg  0.0 0.0       0.0000015976     0.0000000000    -0.0000001235
atom     25.5404956228     3.8559489363     0.8473040544   Mg  0.0 0.0       0.0000001072     0.0000000000    -0.0000004949
atom     15.2936355505     3.8559489363     3.8604656769   Si  0.0 0.0       0.0000011281    -0.0000000000     0.0000009595
atom     18.8859366617     3.8559489363    -2.7472243888   Si  0.0 0.0      -0.0000001703    -0.0000000000    -0.0000014574
atom     19.6546507837     3.8559489363     2.0242315766   Al  0.0 0.0      -0.0000009409    -0.0000000000    -0.0000007180
atom     21.6589377727     0.0000000238    -1.4669680705   Al  0.0 0.0       0.0000009409     0.0000000000     0.0000007180
atom     22.4276518948     0.0000000238     3.3044878950   Si  0.0 0.0       0.0000001703     0.0000000000     0.0000014575
atom     26.0199530063     0.0000000238    -3.3032021692   Si  0.0 0.0      -0.0000011281     0.0000000000    -0.0000009595
energy -298.685281531
charge 0.0000
end
