begin
comment uuid: 00284ee1-6af0-439a-857f-64d2dfa5a7e3 trajectory_step: 0 
lattice 27.4800277501 0.0000000019 -7.7874527941
lattice 0.0000000000 7.7567604596 -0.0000000000
lattice -0.1212669097 -0.0000000000 12.5414748132
atom   -0.081120    -0.000000   12.386942 Al  0.0   0.0  -0.0000004800  -0.0000000000  0.0000004400
atom   1.980886    3.878380   3.605939 Mg  0.0   0.0  0.0002279950  -0.0000000000  -0.0000986550
atom   4.105326    3.878380   10.117642 Mg  0.0   0.0  -0.0002917500  -0.0000000000  -0.0001468350
atom   9.593714    0.000000   -1.778959 Mg  0.0   0.0  0.0002907200  -0.0000000000  0.0001476650
atom   11.718155    0.000000   4.732745 Mg  0.0   0.0  -0.0002290550  0.0000000000  0.0000995250
atom   1.508788    0.000000   7.746097 Si  0.0   0.0  0.0003621000  0.0000000000  0.0003006650
atom   5.078582    -0.000000   1.147836 Si  0.0   0.0  -0.0006194899  -0.0000000000  0.0001150650
atom   5.872440    0.000000   5.912592 Al  0.0   0.0  0.0032769197  0.0000000000  0.0003319550
atom   7.826600    3.878380   2.426091 Al  0.0   0.0  -0.0032779997  0.0000000000  -0.0003312200
atom   8.620471    3.878380   7.190832 Si  0.0   0.0  0.0006247249  -0.0000000000  -0.0001213700
atom   12.190252    3.878380   0.592591 Si  0.0   0.0  -0.0003636850  -0.0000000000  -0.0002972450
atom   13.658894    3.878380   8.493216 Al  0.0   0.0  -0.0000004800  -0.0000000000  0.0000004450
atom   15.720899    0.000000   -0.287788 Mg  0.0   0.0  0.0002279950  0.0000000000  -0.0000986550
atom   17.845340    0.000000   6.223915 Mg  0.0   0.0  -0.0002917550  0.0000000000  -0.0001468400
atom   23.333728    3.878380   -5.672685 Mg  0.0   0.0  0.0002907200  -0.0000000000  0.0001476650
atom   25.458169    3.878380   0.839018 Mg  0.0   0.0  -0.0002290550  -0.0000000000  0.0000995250
atom   15.248802    3.878380   3.852370 Si  0.0   0.0  0.0003621050  -0.0000000000  0.0003006650
atom   18.818596    3.878380   -2.745890 Si  0.0   0.0  -0.0006194899  -0.0000000000  0.0001150750
atom   19.612454    3.878380   2.018866 Al  0.0   0.0  0.0032769197  -0.0000000000  0.0003319550
atom   21.566614    0.000000   -1.467636 Al  0.0   0.0  -0.0032779997  0.0000000000  -0.0003312150
atom   22.360485    0.000000   3.297106 Si  0.0   0.0  0.0006247199  0.0000000000  -0.0001213750
atom   25.930266    0.000000   -3.301135 Si  0.0   0.0  -0.0003636850  0.0000000000  -0.0002972400
energy -298.683618564245478
charge 0.000000000000000
end
begin
comment uuid: 00284ee1-6af0-439a-857f-64d2dfa5a7e3 trajectory_step: 1 
lattice 27.4999651185 0.0000000019 -7.8032051127
lattice 0.0000000000 7.7616510575 -0.0000000000
lattice -0.1288325265 -0.0000000000 12.5404571654
atom   -0.088572    -0.000000   12.385916 Al  0.0   0.0  -0.0000003850  0.0000000000  0.0000006100
atom   1.980425    3.880826   3.604323 Mg  0.0   0.0  0.0001643850  0.0000000000  -0.0000265450
atom   4.100646    3.880826   10.113604 Mg  0.0   0.0  -0.0002597950  0.0000000000  -0.0002089100
atom   9.601024    0.000000   -1.783833 Mg  0.0   0.0  0.0002590450  -0.0000000000  0.0002095600
atom   11.721245    0.000000   4.725448 Mg  0.0   0.0  -0.0001652650  -0.0000000000  0.0000273700
atom   1.506844    0.000000   7.745094 Si  0.0   0.0  0.0005494100  -0.0000000000  0.0001510750
atom   5.078553    0.000000   1.145082 Si  0.0   0.0  -0.0006226449  0.0000000000  0.0001084750
atom   5.882013    0.000000   5.909881 Al  0.0   0.0  0.0027796497  -0.0000000000  0.0003873050
atom   7.819656    3.880826   2.419888 Al  0.0   0.0  -0.0027807097  -0.0000000000  -0.0003868400
atom   8.623149    3.880826   7.184652 Si  0.0   0.0  0.0006271999  0.0000000000  -0.0001138500
atom   12.194823    3.880826   0.584689 Si  0.0   0.0  -0.0005508949  0.0000000000  -0.0001482500
atom   13.661410    3.880826   8.484314 Al  0.0   0.0  -0.0000003800  -0.0000000000  0.0000006100
atom   15.730408    0.000000   -0.297279 Mg  0.0   0.0  0.0001643850  -0.0000000000  -0.0000265450
atom   17.850629    0.000000   6.212001 Mg  0.0   0.0  -0.0002597950  -0.0000000000  -0.0002089100
atom   23.351007    3.880826   -5.685436 Mg  0.0   0.0  0.0002590450  0.0000000000  0.0002095600
atom   25.471227    3.880826   0.823845 Mg  0.0   0.0  -0.0001652650  0.0000000000  0.0000273700
atom   15.256827    3.880826   3.843492 Si  0.0   0.0  0.0005494100  -0.0000000000  0.0001510800
atom   18.828535    3.880826   -2.756520 Si  0.0   0.0  -0.0006226499  0.0000000000  0.0001084750
atom   19.631995    3.880826   2.008279 Al  0.0   0.0  0.0027796497  0.0000000000  0.0003873050
atom   21.569639    0.000000   -1.481714 Al  0.0   0.0  -0.0027807097  -0.0000000000  -0.0003868400
atom   22.373132    0.000000   3.283050 Si  0.0   0.0  0.0006271999  -0.0000000000  -0.0001138500
atom   25.944805    0.000000   -3.316914 Si  0.0   0.0  -0.0005508899  0.0000000000  -0.0001482500
energy -298.683741279233914
charge 0.000000000000000
end
begin
comment uuid: 00284ee1-6af0-439a-857f-64d2dfa5a7e3 trajectory_step: 2 
lattice 27.5226927015 0.0000000019 -7.8240973824
lattice 0.0000000000 7.7688717351 -0.0000000000
lattice -0.1396051824 -0.0000000000 12.5364443755
atom   -0.099191    -0.000000   12.381924 Al  0.0   0.0  -0.0000001950  -0.0000000000  0.0000008000
atom   1.979205    3.884436   3.601603 Mg  0.0   0.0  0.0000687900  0.0000000000  0.0000781550
atom   4.093018    3.884436   10.105307 Mg  0.0   0.0  -0.0002076950  0.0000000000  -0.0002860600
atom   9.609551    0.000000   -1.789960 Mg  0.0   0.0  0.0002074100  -0.0000000000  0.0002864300
atom   11.723362    0.000000   4.713747 Mg  0.0   0.0  -0.0000693300  -0.0000000000  -0.0000773950
atom   1.504935    0.000000   7.741611 Si  0.0   0.0  0.0007361099  0.0000000000  -0.0000366650
atom   5.076785    0.000000   1.140977 Si  0.0   0.0  -0.0006270799  0.0000000000  0.0000911150
atom   5.895111    0.000000   5.905327 Al  0.0   0.0  0.0021053148  -0.0000000000  0.0004338650
atom   7.807454    3.884436   2.410018 Al  0.0   0.0  -0.0021062598  0.0000000000  -0.0004337700
atom   8.625843    3.884436   7.174303 Si  0.0   0.0  0.0006305399  0.0000000000  -0.0000951150
atom   12.197625    3.884436   0.573761 Si  0.0   0.0  -0.0007376099  0.0000000000  0.0000386450
atom   13.662155    3.884436   8.469875 Al  0.0   0.0  -0.0000001950  -0.0000000000  0.0000008000
atom   15.740552    0.000000   -0.310446 Mg  0.0   0.0  0.0000687900  -0.0000000000  0.0000781550
atom   17.854364    0.000000   6.193259 Mg  0.0   0.0  -0.0002076950  -0.0000000000  -0.0002860600
atom   23.370898    3.884436   -5.702009 Mg  0.0   0.0  0.0002074100  0.0000000000  0.0002864300
atom   25.484708    3.884436   0.801698 Mg  0.0   0.0  -0.0000693300  0.0000000000  -0.0000773950
atom   15.266281    3.884436   3.829563 Si  0.0   0.0  0.0007361099  -0.0000000000  -0.0000366650
atom   18.838131    3.884436   -2.771071 Si  0.0   0.0  -0.0006270799  0.0000000000  0.0000911150
atom   19.656457    3.884436   1.993278 Al  0.0   0.0  0.0021053148  0.0000000000  0.0004338700
atom   21.568801    0.000000   -1.502030 Al  0.0   0.0  -0.0021062598  -0.0000000000  -0.0004337700
atom   22.387189    0.000000   3.262254 Si  0.0   0.0  0.0006305399  -0.0000000000  -0.0000951150
atom   25.958971    0.000000   -3.338288 Si  0.0   0.0  -0.0007376099  0.0000000000  0.0000386450
energy -298.683886489220185
charge 0.000000000000000
end
begin
comment uuid: 00284ee1-6af0-439a-857f-64d2dfa5a7e3 trajectory_step: 3 
lattice 27.5450264808 0.0000000019 -7.8503711121
lattice 0.0000000000 7.7798072721 -0.0000000000
lattice -0.1545503101 -0.0000000000 12.5263671633
atom   -0.113935    -0.000000   12.371933 Al  0.0   0.0  0.0000001400  0.0000000000  0.0000009950
atom   1.976465    3.889904   3.597246 Mg  0.0   0.0  -0.0000717200  0.0000000000  0.0002259100
atom   4.080874    3.889904   10.089183 Mg  0.0   0.0  -0.0001247600  0.0000000000  -0.0003782450
atom   9.618320    0.000000   -1.796890 Mg  0.0   0.0  0.0001252100  0.0000000000  0.0003781850
atom   11.722724    0.000000   4.695054 Mg  0.0   0.0  0.0000717600  -0.0000000000  -0.0002252400
atom   1.503877    0.000000   7.733107 Si  0.0   0.0  0.0008866849  -0.0000000000  -0.0002595450
atom   5.071188    0.000000   1.134947 Si  0.0   0.0  -0.0006276799  0.0000000000  0.0000584950
atom   5.912825    0.000000   5.897800 Al  0.0   0.0  0.0012028149  -0.0000000000  0.0004499400
atom   7.786358    3.889904   2.394489 Al  0.0   0.0  -0.0012034749  -0.0000000000  -0.0004503150
atom   8.628101    3.889904   7.157235 Si  0.0   0.0  0.0006293549  0.0000000000  -0.0000605100
atom   12.195293    3.889904   0.559228 Si  0.0   0.0  -0.0008883399  0.0000000000  0.0002603300
atom   13.658578    3.889904   8.446748 Al  0.0   0.0  0.0000001400  -0.0000000000  0.0000009950
atom   15.748979    0.000000   -0.327939 Mg  0.0   0.0  -0.0000717200  -0.0000000000  0.0002259100
atom   17.853387    0.000000   6.163997 Mg  0.0   0.0  -0.0001247600  -0.0000000000  -0.0003782450
atom   23.390833    3.889904   -5.722075 Mg  0.0   0.0  0.0001252100  0.0000000000  0.0003781850
atom   25.495237    3.889904   0.769869 Mg  0.0   0.0  0.0000717600  0.0000000000  -0.0002252400
atom   15.276390    3.889904   3.807921 Si  0.0   0.0  0.0008866849  -0.0000000000  -0.0002595450
atom   18.843701    3.889904   -2.790238 Si  0.0   0.0  -0.0006276799  0.0000000000  0.0000584900
atom   19.685338    3.889904   1.972614 Al  0.0   0.0  0.0012028199  0.0000000000  0.0004499400
atom   21.558871    0.000000   -1.530697 Al  0.0   0.0  -0.0012034749  -0.0000000000  -0.0004503150
atom   22.400614    0.000000   3.232049 Si  0.0   0.0  0.0006293549  -0.0000000000  -0.0000605050
atom   25.967806    0.000000   -3.365958 Si  0.0   0.0  -0.0008883399  -0.0000000000  0.0002603300
energy -298.684040054205639
charge 0.000000000000000
end
begin
comment uuid: 00284ee1-6af0-439a-857f-64d2dfa5a7e3 trajectory_step: 4 
lattice 27.5438277935 0.0000000019 -7.8571276030
lattice 0.0000000000 7.7854834690 -0.0000000000
lattice -0.1601582746 -0.0000000019 12.5174317672
atom   -0.119480    -0.000000   12.363097 Al  0.0   0.0  0.0000007100  -0.0000000000  0.0000011200
atom   1.974173    3.892742   3.595132 Mg  0.0   0.0  -0.0002728950  0.0000000000  0.0004249750
atom   4.074700    3.892742   10.077686 Mg  0.0   0.0  0.0000070000  0.0000000000  -0.0004761200
atom   9.618414    0.000000   -1.797521 Mg  0.0   0.0  -0.0000054250  0.0000000000  0.0004754050
atom   11.718934    0.000000   4.685046 Mg  0.0   0.0  0.0002739050  -0.0000000000  -0.0004244150
atom   1.505395    0.000000   7.725690 Si  0.0   0.0  0.0009123149  -0.0000000000  -0.0004911750
atom   5.065389    0.000000   1.132288 Si  0.0   0.0  -0.0006066599  0.0000000000  0.0000045200
atom   5.919550    0.000000   5.893645 Al  0.0   0.0  0.0000291300  -0.0000000000  0.0003864300
atom   7.773546    3.892742   2.386514 Al  0.0   0.0  -0.0000292450  -0.0000000000  -0.0003873500
atom   8.627830    3.892742   7.147749 Si  0.0   0.0  0.0006052749  0.0000000000  -0.0000037000
atom   12.187680    3.892742   0.554524 Si  0.0   0.0  -0.0009141049  0.0000000000  0.0004903150
atom   13.652434    3.892742   8.434533 Al  0.0   0.0  0.0000007100  0.0000000000  0.0000011200
atom   15.746087    0.000000   -0.333432 Mg  0.0   0.0  -0.0002728950  -0.0000000000  0.0004249750
atom   17.846614    0.000000   6.149122 Mg  0.0   0.0  0.0000070000  -0.0000000000  -0.0004761200
atom   23.390328    3.892742   -5.726085 Mg  0.0   0.0  -0.0000054250  0.0000000000  0.0004754050
atom   25.490848    3.892742   0.756482 Mg  0.0   0.0  0.0002739050  0.0000000000  -0.0004244100
atom   15.277309    3.892742   3.797126 Si  0.0   0.0  0.0009123149  0.0000000000  -0.0004911750
atom   18.837303    3.892742   -2.796276 Si  0.0   0.0  -0.0006066599  0.0000000000  0.0000045200
atom   19.691464    3.892742   1.965081 Al  0.0   0.0  0.0000291300  0.0000000000  0.0003864300
atom   21.545460    0.000000   -1.542049 Al  0.0   0.0  -0.0000292450  -0.0000000000  -0.0003873500
atom   22.399744    0.000000   3.219185 Si  0.0   0.0  0.0006052749  -0.0000000000  -0.0000037000
atom   25.959594    0.000000   -3.374040 Si  0.0   0.0  -0.0009141099  -0.0000000000  0.0004903150
energy -298.684164164193874
charge 0.000000000000000
end
begin
comment uuid: 00284ee1-6af0-439a-857f-64d2dfa5a7e3 trajectory_step: 5 
lattice 27.5251761361 0.0000000038 -7.8551719368
lattice 0.0000000000 7.7931166926 -0.0000000000
lattice -0.1637450579 -0.0000000019 12.5012997819
atom   -0.123047    -0.000000   12.347163 Al  0.0   0.0  0.0000009900  0.0000000000  0.0000009950
atom   1.970040    3.896558   3.593115 Mg  0.0   0.0  -0.0003539250  0.0000000000  0.0004915700
atom   4.067772    3.896558   10.059053 Mg  0.0   0.0  0.0000799200  0.0000000000  -0.0004779850
atom   9.612469    0.000000   -1.793671 Mg  0.0   0.0  -0.0000778400  0.0000000000  0.0004769250
atom   11.710189    0.000000   4.672290 Mg  0.0   0.0  0.0003554300  -0.0000000000  -0.0004910250
atom   1.510399    0.000000   7.712351 Si  0.0   0.0  0.0007465899  -0.0000000000  -0.0005061150
atom   5.054058    0.000000   1.129771 Si  0.0   0.0  -0.0005578349  0.0000000000  -0.0000242850
atom   5.925021    0.000000   5.888346 Al  0.0   0.0  -0.0003681400  -0.0000000000  0.0002804450
atom   7.755187    3.896558   2.377029 Al  0.0   0.0  0.0003683000  -0.0000000000  -0.0002814750
atom   8.626283    3.896558   7.135472 Si  0.0   0.0  0.0005547399  -0.0000000000  0.0000263050
atom   12.169773    3.896558   0.553088 Si  0.0   0.0  -0.0007482349  0.0000000000  0.0005046450
atom   13.639541    3.896558   8.419577 Al  0.0   0.0  0.0000009900  -0.0000000000  0.0000009950
atom   15.732628    0.000000   -0.334471 Mg  0.0   0.0  -0.0003539250  -0.0000000000  0.0004915700
atom   17.830360    0.000000   6.131468 Mg  0.0   0.0  0.0000799200  -0.0000000000  -0.0004779850
atom   23.375057    3.896558   -5.721257 Mg  0.0   0.0  -0.0000778400  0.0000000000  0.0004769300
atom   25.472777    3.896558   0.744704 Mg  0.0   0.0  0.0003554300  0.0000000000  -0.0004910250
atom   15.272987    3.896558   3.784765 Si  0.0   0.0  0.0007465899  0.0000000000  -0.0005061150
atom   18.816646    3.896558   -2.797815 Si  0.0   0.0  -0.0005578349  0.0000000000  -0.0000242850
atom   19.687609    3.896558   1.960760 Al  0.0   0.0  -0.0003681350  0.0000000000  0.0002804450
atom   21.517775    0.000000   -1.550557 Al  0.0   0.0  0.0003683000  -0.0000000000  -0.0002814750
atom   22.388871    0.000000   3.207886 Si  0.0   0.0  0.0005547399  -0.0000000000  0.0000263100
atom   25.932361    0.000000   -3.374498 Si  0.0   0.0  -0.0007482349  -0.0000000000  0.0005046400
energy -298.684209519189608
charge 0.000000000000000
end
begin
comment uuid: 00284ee1-6af0-439a-857f-64d2dfa5a7e3 trajectory_step: 6 
lattice 27.4987659210 0.0000000038 -7.8418132171
lattice 0.0000000000 7.7978096290 -0.0000000019
lattice -0.1610715755 -0.0000000019 12.4887491129
atom   -0.120435    -0.000000   12.334782 Al  0.0   0.0  0.0000012250  0.0000000000  0.0000005500
atom   1.966679    3.898905   3.593448 Mg  0.0   0.0  -0.0004131050  0.0000000000  0.0005119300
atom   4.066304    3.898905   10.045983 Mg  0.0   0.0  0.0001769000  0.0000000000  -0.0004073250
atom   9.603284    0.000000   -1.786154 Mg  0.0   0.0  -0.0001744000  -0.0000000000  0.0004058650
atom   11.702893    0.000000   4.666418 Mg  0.0   0.0  0.0004151150  -0.0000000000  -0.0005113400
atom   1.516357    0.000000   7.701971 Si  0.0   0.0  0.0003132300  -0.0000000000  -0.0003799950
atom   5.044374    0.000000   1.129711 Si  0.0   0.0  -0.0004238050  0.0000000000  -0.0000549600
atom   5.925024    0.000000   5.886086 Al  0.0   0.0  -0.0005766249  -0.0000000000  0.0000550350
atom   7.744516    3.898905   2.373736 Al  0.0   0.0  0.0005769899  -0.0000000000  -0.0000559650
atom   8.625283    3.898905   7.129990 Si  0.0   0.0  0.0004184600  0.0000000000  0.0000580750
atom   12.153135    3.898905   0.557917 Si  0.0   0.0  -0.0003139900  0.0000000000  0.0003781250
atom   13.628948    3.898905   8.413875 Al  0.0   0.0  0.0000012250  0.0000000000  0.0000005500
atom   15.716062    0.000000   -0.327459 Mg  0.0   0.0  -0.0004131050  -0.0000000000  0.0005119300
atom   17.815687    -0.000000   6.125077 Mg  0.0   0.0  0.0001769000  -0.0000000000  -0.0004073200
atom   23.352667    3.898905   -5.707061 Mg  0.0   0.0  -0.0001744000  0.0000000000  0.0004058650
atom   25.452276    3.898905   0.745511 Mg  0.0   0.0  0.0004151150  0.0000000000  -0.0005113400
atom   15.265740    3.898905   3.781065 Si  0.0   0.0  0.0003132300  0.0000000000  -0.0003799950
atom   18.793757    3.898905   -2.791196 Si  0.0   0.0  -0.0004238050  0.0000000000  -0.0000549600
atom   19.674407    3.898905   1.965180 Al  0.0   0.0  -0.0005766199  0.0000000000  0.0000550350
atom   21.493898    0.000000   -1.547170 Al  0.0   0.0  0.0005769899  -0.0000000000  -0.0000559650
atom   22.374666    0.000000   3.209083 Si  0.0   0.0  0.0004184600  -0.0000000000  0.0000580750
atom   25.902518    0.000000   -3.362989 Si  0.0   0.0  -0.0003139900  -0.0000000000  0.0003781250
energy -298.684269404183965
charge 0.000000000000000
end
begin
comment uuid: 00284ee1-6af0-439a-857f-64d2dfa5a7e3 trajectory_step: 7 
lattice 27.4819222402 0.0000000038 -7.8274638123
lattice 0.0000000000 7.7993796041 -0.0000000000
lattice -0.1556949210 -0.0000000019 12.4842878418
atom   -0.115138    -0.000000   12.330394 Al  0.0   0.0  0.0000011150  0.0000000000  0.0000000000
atom   1.965172    3.899690   3.595578 Mg  0.0   0.0  -0.0003790700  0.0000000000  0.0004360850
atom   4.069466    3.899690   10.042092 Mg  0.0   0.0  0.0002241850  0.0000000000  -0.0002878050
atom   9.596919    0.000000   -1.779415 Mg  0.0   0.0  -0.0002218100  -0.0000000000  0.0002862550
atom   11.701194    0.000000   4.667147 Mg  0.0   0.0  0.0003811050  -0.0000000000  -0.0004353900
atom   1.520281    0.000000   7.698251 Si  0.0   0.0  -0.0001118550  -0.0000000000  -0.0001591800
atom   5.040107    0.000000   1.131223 Si  0.0   0.0  -0.0002646000  0.0000000000  -0.0000573900
atom   5.923073    0.000000   5.886737 Al  0.0   0.0  -0.0003502000  -0.0000000000  -0.0001443950
atom   7.743252    3.899690   2.375937 Al  0.0   0.0  0.0003504600  -0.0000000000  0.0001437600
atom   8.626307    3.899690   7.131348 Si  0.0   0.0  0.0002584850  0.0000000000  0.0000604300
atom   12.145992    3.899690   0.564486 Si  0.0   0.0  0.0001121800  0.0000000000  0.0001576250
atom   13.625823    3.899690   8.416662 Al  0.0   0.0  0.0000011150  0.0000000000  0.0000000000
atom   15.706133    0.000000   -0.318154 Mg  0.0   0.0  -0.0003790700  -0.0000000000  0.0004360850
atom   17.810427    -0.000000   6.128360 Mg  0.0   0.0  0.0002241850  -0.0000000000  -0.0002878050
atom   23.337880    3.899690   -5.693147 Mg  0.0   0.0  -0.0002218100  0.0000000000  0.0002862550
atom   25.442155    3.899690   0.753415 Mg  0.0   0.0  0.0003811050  0.0000000000  -0.0004353900
atom   15.261242    3.899690   3.784519 Si  0.0   0.0  -0.0001118550  -0.0000000000  -0.0001591800
atom   18.781068    3.899690   -2.782509 Si  0.0   0.0  -0.0002646000  0.0000000000  -0.0000573900
atom   19.664035    3.899690   1.973005 Al  0.0   0.0  -0.0003501950  0.0000000000  -0.0001443950
atom   21.484213    0.000000   -1.537795 Al  0.0   0.0  0.0003504600  -0.0000000000  0.0001437600
atom   22.367268    0.000000   3.217616 Si  0.0   0.0  0.0002584850  -0.0000000000  0.0000604350
atom   25.886953    0.000000   -3.349246 Si  0.0   0.0  0.0001121800  -0.0000000000  0.0001576250
energy -298.684307224180372
charge 0.000000000000000
end
begin
comment uuid: 00284ee1-6af0-439a-857f-64d2dfa5a7e3 trajectory_step: 8 
lattice 27.4767036821 0.0000000019 -7.8181027025
lattice 0.0000000000 7.8001794325 -0.0000000000
lattice -0.1514551334 -0.0000000019 12.4840377120
atom   -0.110949    -0.000000   12.330160 Al  0.0   0.0  0.0000008200  0.0000000000  -0.0000003650
atom   1.964572    3.900090   3.598021 Mg  0.0   0.0  -0.0002920300  0.0000000000  0.0003251250
atom   4.073529    3.900090   10.042110 Mg  0.0   0.0  0.0002170450  0.0000000000  -0.0001911550
atom   9.594385    0.000000   -1.774977 Mg  0.0   0.0  -0.0002150400  -0.0000000000  0.0001898200
atom   11.703322    0.000000   4.669170 Mg  0.0   0.0  0.0002938050  -0.0000000000  -0.0003243350
atom   1.522191    0.000000   7.698031 Si  0.0   0.0  -0.0002951450  -0.0000000000  0.0000135450
atom   5.039047    0.000000   1.132671 Si  0.0   0.0  -0.0001518650  -0.0000000000  -0.0000387600
atom   5.922793    0.000000   5.887925 Al  0.0   0.0  -0.0000009500  -0.0000000000  -0.0002265400
atom   7.745053    3.900090   2.379209 Al  0.0   0.0  0.0000010800  -0.0000000000  0.0002261700
atom   8.628860    3.900090   7.134376 Si  0.0   0.0  0.0001465500  0.0000000000  0.0000409600
atom   12.145602    3.900090   0.569162 Si  0.0   0.0  0.0002957250  0.0000000000  -0.0000144650
atom   13.627402    3.900090   8.421108 Al  0.0   0.0  0.0000008200  0.0000000000  -0.0000003650
atom   15.702924    0.000000   -0.311031 Mg  0.0   0.0  -0.0002920300  -0.0000000000  0.0003251250
atom   17.811881    -0.000000   6.133059 Mg  0.0   0.0  0.0002170450  0.0000000000  -0.0001911550
atom   23.332737    3.900090   -5.684029 Mg  0.0   0.0  -0.0002150400  -0.0000000000  0.0001898250
atom   25.441673    3.900090   0.760119 Mg  0.0   0.0  0.0002938050  0.0000000000  -0.0003243350
atom   15.260543    3.900090   3.788979 Si  0.0   0.0  -0.0002951450  -0.0000000000  0.0000135500
atom   18.777399    3.900090   -2.776381 Si  0.0   0.0  -0.0001518650  -0.0000000000  -0.0000387650
atom   19.661145    3.900090   1.978873 Al  0.0   0.0  -0.0000009500  0.0000000000  -0.0002265400
atom   21.483404    0.000000   -1.529842 Al  0.0   0.0  0.0000010800  -0.0000000000  0.0002261700
atom   22.367211    -0.000000   3.225325 Si  0.0   0.0  0.0001465500  -0.0000000000  0.0000409650
atom   25.883954    0.000000   -3.339889 Si  0.0   0.0  0.0002957250  -0.0000000000  -0.0000144650
energy -298.684323444178858
charge 0.000000000000000
end
begin
comment uuid: 00284ee1-6af0-439a-857f-64d2dfa5a7e3 trajectory_step: 9 
lattice 27.4767719239 0.0000000019 -7.8097333492
lattice 0.0000000000 7.8016394878 -0.0000000000
lattice -0.1474576842 -0.0000000000 12.4845962149
atom   -0.106992    -0.000000   12.330722 Al  0.0   0.0  0.0000005200  0.0000000000  -0.0000005200
atom   1.963792    3.900820   3.601252 Mg  0.0   0.0  -0.0002086500  0.0000000000  0.0002323000
atom   4.078624    3.900820   10.042273 Mg  0.0   0.0  0.0001934700  0.0000000000  -0.0001359250
atom   9.593245    -0.000000   -1.770395 Mg  0.0   0.0  -0.0001918200  0.0000000000  0.0001349000
atom   11.708055    -0.000000   4.670698 Mg  0.0   0.0  0.0002101300  0.0000000000  -0.0002314550
atom   1.523786    -0.000000   7.698568 Si  0.0   0.0  -0.0002807150  -0.0000000000  0.0000954100
atom   5.038516    0.000000   1.134097 Si  0.0   0.0  -0.0000846000  0.0000000000  -0.0000188700
atom   5.924863    0.000000   5.888936 Al  0.0   0.0  0.0001986800  -0.0000000000  -0.0002243600
atom   7.746924    3.900820   2.382948 Al  0.0   0.0  -0.0001986300  -0.0000000000  0.0002241200
atom   8.633295    3.900820   7.137719 Si  0.0   0.0  0.0000805000  0.0000000000  0.0000202200
atom   12.147949    3.900820   0.573372 Si  0.0   0.0  0.0002811100  0.0000000000  -0.0000958200
atom   13.631394    3.900820   8.425855 Al  0.0   0.0  0.0000005200  0.0000000000  -0.0000005200
atom   15.702178    -0.000000   -0.303614 Mg  0.0   0.0  -0.0002086500  -0.0000000000  0.0002323000
atom   17.817010    -0.000000   6.137406 Mg  0.0   0.0  0.0001934700  0.0000000000  -0.0001359250
atom   23.331631    3.900820   -5.675262 Mg  0.0   0.0  -0.0001918200  -0.0000000000  0.0001349000
atom   25.446441    3.900820   0.765831 Mg  0.0   0.0  0.0002101300  0.0000000000  -0.0002314550
atom   15.262172    3.900820   3.793701 Si  0.0   0.0  -0.0002807150  0.0000000000  0.0000954100
atom   18.776902    3.900820   -2.770770 Si  0.0   0.0  -0.0000846000  -0.0000000000  -0.0000188700
atom   19.663249    3.900820   1.984070 Al  0.0   0.0  0.0001986800  0.0000000000  -0.0002243600
atom   21.485310    0.000000   -1.521918 Al  0.0   0.0  -0.0001986300  -0.0000000000  0.0002241200
atom   22.371681    -0.000000   3.232852 Si  0.0   0.0  0.0000805000  -0.0000000000  0.0000202250
atom   25.886335    0.000000   -3.331495 Si  0.0   0.0  0.0002811100  -0.0000000000  -0.0000958200
energy -298.684331319178114
charge 0.000000000000000
end
begin
comment uuid: 00284ee1-6af0-439a-857f-64d2dfa5a7e3 trajectory_step: 10 
lattice 27.4808380741 0.0000000000 -7.8057425954
lattice 0.0000000000 7.8031954675 -0.0000000000
lattice -0.1455744474 -0.0000000000 12.4848211036
atom   -0.105120    -0.000000   12.330948 Al  0.0   0.0  0.0000001100  0.0000000000  -0.0000005700
atom   1.962825    3.901598   3.603905 Mg  0.0   0.0  -0.0001090300  -0.0000000000  0.0001262600
atom   4.082384    3.901598   10.041384 Mg  0.0   0.0  0.0001633200  -0.0000000000  -0.0000852200
atom   9.593384    -0.000000   -1.767288 Mg  0.0   0.0  -0.0001621200  0.0000000000  0.0000846200
atom   11.712918    -0.000000   4.670279 Mg  0.0   0.0  0.0001100850  0.0000000000  -0.0001253850
atom   1.524671    -0.000000   7.698970 Si  0.0   0.0  -0.0001568400  0.0000000000  0.0001359750
atom   5.038093    0.000000   1.134761 Si  0.0   0.0  -0.0000158250  0.0000000000  0.0000010500
atom   5.928675    0.000000   5.888917 Al  0.0   0.0  0.0002870050  -0.0000000000  -0.0001776800
atom   7.746996    3.901598   2.385191 Al  0.0   0.0  -0.0002870350  -0.0000000000  0.0001775150
atom   8.637571    3.901598   7.139292 Si  0.0   0.0  0.0000133500  -0.0000000000  -0.0000006500
atom   12.150949    3.901598   0.575192 Si  0.0   0.0  0.0001569800  0.0000000000  -0.0001359150
atom   13.635299    3.901598   8.428076 Al  0.0   0.0  0.0000001100  -0.0000000000  -0.0000005700
atom   15.703244    -0.000000   -0.298967 Mg  0.0   0.0  -0.0001090300  0.0000000000  0.0001262600
atom   17.822803    -0.000000   6.138512 Mg  0.0   0.0  0.0001633200  0.0000000000  -0.0000852200
atom   23.333803    3.901598   -5.670159 Mg  0.0   0.0  -0.0001621200  -0.0000000000  0.0000846200
atom   25.453338    3.901598   0.767408 Mg  0.0   0.0  0.0001100850  -0.0000000000  -0.0001253850
atom   15.265090    3.901598   3.796099 Si  0.0   0.0  -0.0001568400  0.0000000000  0.0001359750
atom   18.778512    3.901598   -2.768111 Si  0.0   0.0  -0.0000158250  -0.0000000000  0.0000010500
atom   19.669094    3.901598   1.986045 Al  0.0   0.0  0.0002870050  0.0000000000  -0.0001776800
atom   21.487415    -0.000000   -1.517680 Al  0.0   0.0  -0.0002870350  -0.0000000000  0.0001775150
atom   22.377990    -0.000000   3.236420 Si  0.0   0.0  0.0000133500  0.0000000000  -0.0000006500
atom   25.891368    0.000000   -3.327679 Si  0.0   0.0  0.0001569800  -0.0000000000  -0.0001359100
energy -298.684338719177390
charge 0.000000000000000
end
begin
comment uuid: 00284ee1-6af0-439a-857f-64d2dfa5a7e3 trajectory_step: 11 
lattice 27.4847026396 0.0000000000 -7.8060255667
lattice 0.0000000000 7.8037712954 -0.0000000000
lattice -0.1457962993 -0.0000000000 12.4845321172
atom   -0.105332    0.000000   12.330660 Al  0.0   0.0  -0.0000002400  0.0000000000  -0.0000004900
atom   1.961985    3.901886   3.605149 Mg  0.0   0.0  -0.0000349800  -0.0000000000  0.0000495300
atom   4.083788    3.901886   10.039910 Mg  0.0   0.0  0.0001422300  -0.0000000000  -0.0000530650
atom   9.593716    -0.000000   -1.766243 Mg  0.0   0.0  -0.0001414100  0.0000000000  0.0000528250
atom   11.715492    -0.000000   4.668617 Mg  0.0   0.0  0.0000356400  0.0000000000  -0.0000486750
atom   1.524856    -0.000000   7.698998 Si  0.0   0.0  -0.0000009550  0.0000000000  0.0001144000
atom   5.037691    0.000000   1.134644 Si  0.0   0.0  0.0000266850  0.0000000000  0.0000080800
atom   5.931756    0.000000   5.888095 Al  0.0   0.0  0.0002123900  -0.0000000000  -0.0001108000
atom   7.745641    3.901886   2.385586 Al  0.0   0.0  -0.0002125000  0.0000000000  0.0001106250
atom   8.639682    3.901886   7.138986 Si  0.0   0.0  -0.0000278150  -0.0000000000  -0.0000082950
atom   12.152489    3.901886   0.574740 Si  0.0   0.0  0.0000009600  0.0000000000  -0.0001141350
atom   13.637019    3.901886   8.427647 Al  0.0   0.0  -0.0000002400  0.0000000000  -0.0000004900
atom   15.704337    -0.000000   -0.297864 Mg  0.0   0.0  -0.0000349800  0.0000000000  0.0000495300
atom   17.826139    -0.000000   6.136897 Mg  0.0   0.0  0.0001422300  0.0000000000  -0.0000530650
atom   23.336067    3.901886   -5.669256 Mg  0.0   0.0  -0.0001414100  -0.0000000000  0.0000528250
atom   25.457844    3.901886   0.765604 Mg  0.0   0.0  0.0000356400  -0.0000000000  -0.0000486750
atom   15.267208    3.901886   3.795985 Si  0.0   0.0  -0.0000009550  -0.0000000000  0.0001144000
atom   18.780043    3.901886   -2.768369 Si  0.0   0.0  0.0000266900  -0.0000000000  0.0000080800
atom   19.674107    3.901886   1.985083 Al  0.0   0.0  0.0002123900  0.0000000000  -0.0001108000
atom   21.487993    -0.000000   -1.517427 Al  0.0   0.0  -0.0002125000  0.0000000000  0.0001106250
atom   22.382033    -0.000000   3.235974 Si  0.0   0.0  -0.0000278150  0.0000000000  -0.0000082950
atom   25.894841    0.000000   -3.328273 Si  0.0   0.0  0.0000009600  0.0000000000  -0.0001141350
energy -298.684343619176957
charge 0.000000000000000
end
begin
comment uuid: 00284ee1-6af0-439a-857f-64d2dfa5a7e3 trajectory_step: 12 
lattice 27.4866126822 0.0000000000 -7.8077301129
lattice 0.0000000000 7.8033211910 -0.0000000000
lattice -0.1466649290 -0.0000000000 12.4842433747
atom   -0.106188    0.000000   12.330370 Al  0.0   0.0  -0.0000004150  0.0000000000  -0.0000003300
atom   1.961311    3.901661   3.605666 Mg  0.0   0.0  -0.0000058100  -0.0000000000  0.0000200900
atom   4.084137    3.901661   10.038659 Mg  0.0   0.0  0.0001333750  -0.0000000000  -0.0000401150
atom   9.593485    -0.000000   -1.766134 Mg  0.0   0.0  -0.0001327600  0.0000000000  0.0000400600
atom   11.716283    -0.000000   4.666966 Mg  0.0   0.0  0.0000062200  0.0000000000  -0.0000192900
atom   1.524800    -0.000000   7.698973 Si  0.0   0.0  0.0000904600  0.0000000000  0.0000589550