begin
comment uuid: 214987d9-9043-440d-af0a-812ec59364b7 parent_uuid: 00284ee1-6af0-439a-857f-64d2dfa5a7e3 trajectory_step: final_scf
lattice     27.4665180567    -0.0000000000    -7.7663263906
lattice     -0.0000000001     7.7562893077    -0.0000000000
lattice     -0.1129762107     0.0000000001    12.5363915019
atom     -0.0729422561     0.0000000236    12.3819462553   Al  0.0 0.0      -0.0000000034     0.0000000000    -0.0000000130
atom      1.9822516833     3.8781446776     3.6059273264   Mg  0.0 0.0       0.0000000879    -0.0000000000     0.0000012845
atom      4.1103549845     3.8781446777    10.1164382098   Mg  0.0 0.0       0.0000000134    -0.0000000000    -0.0000007897
atom      9.5899958021     0.0000000239    -1.7721014592   Mg  0.0 0.0      -0.0000000200     0.0000000000     0.0000007945
atom     11.7180986130     0.0000000239     4.7384106583   Mg  0.0 0.0      -0.0000000822     0.0000000000    -0.0000012950
atom      1.5128137488     0.0000000236     7.7429521662   Si  0.0 0.0       0.0000008167     0.0000000000     0.0000016483
atom      5.0791532493     0.0000000236     1.1501522851   Si  0.0 0.0       0.0000006990     0.0000000000     0.0000022255
atom      5.8689701011     0.0000000237     5.9139268487   Al  0.0 0.0      -0.0000006355     0.0000000000     0.0000007818
atom      7.8313800756     3.8781446778     2.4304099951   Al  0.0 0.0       0.0000006359    -0.0000000000    -0.0000007879
atom      8.6211969139     3.8781446779     7.1941843421   Si  0.0 0.0      -0.0000006890    -0.0000000000    -0.0000022052
atom     12.1875365974     3.8781446779     0.6013851965   Si  0.0 0.0      -0.0000008240    -0.0000000000    -0.0000016447
atom     13.6603167718     3.8781446779     8.4987830575   Al  0.0 0.0      -0.0000000033    -0.0000000000    -0.0000000132
atom     15.7155107072     0.0000000239    -0.2772358796   Mg  0.0 0.0       0.0000000881     0.0000000000     0.0000012845
atom     17.8436140179     0.0000000239     6.2332750005   Mg  0.0 0.0       0.0000000133     0.0000000000    -0.0000007897
atom     23.3232548384     3.8781446775    -5.6552646636   Mg  0.0 0.0      -0.0000000201    -0.0000000000     0.0000007944
atom     25.4513576392     3.8781446775     0.8552474626   Mg  0.0 0.0      -0.0000000821    -0.0000000000    -0.0000012950
atom     15.2460727730     3.8781446779     3.8597889577   Si  0.0 0.0       0.0000008177    -0.0000000000     0.0000016494
atom     18.8124122755     3.8781446778    -2.7330109244   Si  0.0 0.0       0.0000006992    -0.0000000000     0.0000022257
atom     19.6022291293     3.8781446777     2.0307636402   Al  0.0 0.0      -0.0000006357    -0.0000000000     0.0000007818
atom     21.5646391066     0.0000000237    -1.4527532123   Al  0.0 0.0       0.0000006353     0.0000000000    -0.0000007877
atom     22.3544559404     0.0000000236     3.3110211368   Si  0.0 0.0      -0.0000006889     0.0000000000    -0.0000022051
atom     25.9207956186     0.0000000235    -3.2817779991   Si  0.0 0.0      -0.0000008225     0.0000000000    -0.0000016441
energy -298.68513238
charge 0.0000
end
