begin
comment Mg4Al3Si4
lattice     27.4633394771     0.0000000000    -7.7758113369
lattice      0.0000000000     7.7533771121     0.0000000000
lattice     -0.1160293486     0.0000000000    12.5409487820
atom     -0.0759649762    -0.0000000000    12.3864378222   Al  0.0 0.0      -0.0000000007     0.0000000000    -0.0000000102
atom      1.9809471860     3.8766885561     3.6068168314   Mg  0.0 0.0       0.0000005750    -0.0000000000     0.0000003510
atom      4.1080744886     3.8766885561    10.1192462313   Mg  0.0 0.0       0.0000005429    -0.0000000000    -0.0000007578
atom      9.5876945844    -0.0000000000    -1.7752254145   Mg  0.0 0.0      -0.0000005431     0.0000000000     0.0000007609
atom     11.7148217978    -0.0000000000     4.7372043108   Mg  0.0 0.0      -0.0000005718     0.0000000000    -0.0000003529
atom      1.5105219067    -0.0000000000     7.7458244358   Si  0.0 0.0       0.0000007206     0.0000000000     0.0000022000
atom      5.0778046039    -0.0000000000     1.1496592851   Si  0.0 0.0       0.0000006079     0.0000000000     0.0000018222
atom      5.8654484959     0.0000000000     5.9141283315   Al  0.0 0.0      -0.0000000800    -0.0000000000    -0.0000000222
atom      7.8303204396     3.8766885561     2.4298925341   Al  0.0 0.0       0.0000000864    -0.0000000000     0.0000000181
atom      8.6179643256     3.8766885561     7.1943615297   Si  0.0 0.0      -0.0000006026     0.0000000000    -0.0000018181
atom     12.1852472329     3.8766885561     0.5981965008   Si  0.0 0.0      -0.0000007378    -0.0000000000    -0.0000021937
atom     13.6557047590     3.8766885561     8.4985321902   Al  0.0 0.0      -0.0000000006    -0.0000000000    -0.0000000105
atom     15.7126169231    -0.0000000000    -0.2810888013   Mg  0.0 0.0       0.0000005754     0.0000000000     0.0000003505
atom     17.8397442428    -0.0000000000     6.2313405691   Mg  0.0 0.0       0.0000005424     0.0000000000    -0.0000007582
atom     23.3193643248     3.8766885561    -5.6631311127   Mg  0.0 0.0      -0.0000005435    -0.0000000000     0.0000007607
atom     25.4464915305     3.8766885561     0.8492985975   Mg  0.0 0.0      -0.0000005714    -0.0000000000    -0.0000003530
atom     15.2421916257     3.8766885561     3.8579187800   Si  0.0 0.0       0.0000007246    -0.0000000000     0.0000022030
atom     18.8094743398     3.8766885561    -2.7382463819   Si  0.0 0.0       0.0000006079    -0.0000000000     0.0000018220
atom     19.5971182344     3.8766885561     2.0262226588   Al  0.0 0.0      -0.0000000808    -0.0000000000    -0.0000000218
atom     21.5619901837    -0.0000000000    -1.4580131602   Al  0.0 0.0       0.0000000856     0.0000000000     0.0000000185
atom     22.3496340663    -0.0000000000     3.3064558353   Si  0.0 0.0      -0.0000006026     0.0000000000    -0.0000018180
atom     25.9169169478    -0.0000000000    -3.2897092216   Si  0.0 0.0      -0.0000007337     0.0000000000    -0.0000021904
energy -298.685144677
charge 0.0000
end
