
     Program PWSCF v.6.3 starts on 22Feb2020 at 11:23:14 

     This program is part of the open-source Quantum ESPRESSO suite
     for quantum simulation of materials; please cite
         "P. Giannozzi et al., J. Phys.:Condens. Matter 21 395502 (2009);
         "P. Giannozzi et al., J. Phys.:Condens. Matter 29 465901 (2017);
          URL http://www.quantum-espresso.org", 
     in publications or presentations arising from this work. More details at
     http://www.quantum-espresso.org/quote

 *** WARNING: using old-style file format, will disappear from next version ***

     Parallel version (MPI & OpenMP), running on      36 processor cores
     Number of MPI processes:                36
     Threads/MPI process:                     1

     MPI processes distributed on     1 nodes
     K-points division:     npool     =       4
     R & G space division:  proc/nbgrp/npool/nimage =       9
     Reading input from aiida.in
Warning: card &IONS ignored
Warning: card   !PRESS_CONV_THR = 0.05                 ! JUST FOR VOLUME RELAXATIONS ignored
Warning: card / ignored

     Current dimensions of program PWSCF are:
     Max number of different atomic species (ntypx) = 10
     Max number of k-points (npk) =  40000
     Max angular momentum in pseudopotentials (lmaxx) =  3
               file Mg.pbe-n-kjpaw_psl.0.3.0.UPF: wavefunction(s)  3S renormalized

     Subspace diagonalization in iterative solution of the eigenvalue problem:
     one sub-group per band group will be used
     scalapack distributed-memory algorithm (size of sub-group:  2*  2 procs)

     Found symmetry operation: I + ( -0.5000  0.5000  0.0000)
     This is a supercell, fractional translations are disabled
 
     Parallelization info
     --------------------
     sticks:   dense  smooth     PW     G-vecs:    dense   smooth      PW
     Min         781     312     90                40859    10344    1615
     Max         782     313     91                40860    10346    1617
     Sum        7031    2813    815               367737    93101   14545
 


     bravais-lattice index     =            0
     lattice parameter (alat)  =      28.6012  a.u.
     unit-cell volume          =    2720.3610 (a.u.)^3
     number of atoms/cell      =           22
     number of atomic types    =            2
     number of electrons       =        68.00
     number of Kohn-Sham states=           41
     kinetic-energy cutoff     =      40.0000  Ry
     charge density cutoff     =     400.0000  Ry
     convergence threshold     =      1.0E-12
     mixing beta               =       0.4000
     number of iterations used =            8  local-TF  mixing
     Exchange-correlation      = PBE ( 1  4  3  4 0 0)

     celldm(1)=  28.601187  celldm(2)=   0.000000  celldm(3)=   0.000000
     celldm(4)=   0.000000  celldm(5)=   0.000000  celldm(6)=   0.000000

     crystal axes: (cart. coord. in units of alat)
               a(1) = (   0.940296   0.000000  -0.340358 )  
               a(2) = (   0.000000   0.269614   0.000000 )  
               a(3) = (   0.000000   0.000000   0.458636 )  

     reciprocal axes: (cart. coord. in units 2 pi/alat)
               b(1) = (  1.063495  0.000000  0.000000 )  
               b(2) = (  0.000000  3.709010  0.000000 )  
               b(3) = (  0.789229  0.000000  2.180380 )  


     PseudoPot. # 1 for Mg read from file:
     /users/aglensk/Dropbox/Albert/scripts/dotfiles/scripts/potentials/quantum_espresso/pseudo_SSSPefV1.1_alalloy/Mg.pbe-n-kjpaw_psl.0.3.0.UPF
     MD5 check sum: 24ecedc7f3e3cbe212e682f4413594e4
     Pseudo is Projector augmented-wave + core cor, Zval =  2.0
     Generated using "atomic" code by A. Dal Corso v.5.0.99 svn rev. 10869
     Shape of augmentation charge: PSQ
     Using radial grid of 1129 points,  4 beta functions with: 
                l(1) =   0
                l(2) =   0
                l(3) =   1
                l(4) =   1
     Q(r) pseudized with 0 coefficients 


     PseudoPot. # 2 for Si read from file:
     /users/aglensk/Dropbox/Albert/scripts/dotfiles/scripts/potentials/quantum_espresso/pseudo_SSSPefV1.1_alalloy/Si.pbe-n-rrkjus_psl.1.0.0.UPF
     MD5 check sum: 0b0bb1205258b0d07b9f9672cf965d36
     Pseudo is Ultrasoft + core correction, Zval =  4.0
     Generated using "atomic" code by A. Dal Corso v.5.1
     Using radial grid of 1141 points,  6 beta functions with: 
                l(1) =   0
                l(2) =   0
                l(3) =   1
                l(4) =   1
                l(5) =   2
                l(6) =   2
     Q(r) pseudized with 0 coefficients 


     atomic species   valence    mass     pseudopotential
        Mg             2.00    24.30500     Mg( 1.00)
        Si             4.00    28.08500     Si( 1.00)

     No symmetry found


                                    s                        frac. trans.

      isym =  1     identity                                     

 cryst.   s( 1) = (     1          0          0      )
                  (     0          1          0      )
                  (     0          0          1      )

 cart.    s( 1) = (  1.0000000  0.0000000  0.0000000 )
                  (  0.0000000  1.0000000  0.0000000 )
                  ( -0.0000000  0.0000000  1.0000000 )


   Cartesian axes

     site n.     atom                  positions (alat units)
         1           Mg  tau(   1) = (   0.0013287   0.0000000   0.4529168  )
         2           Mg  tau(   2) = (   0.0746166   0.1348069   0.1388727  )
         3           Mg  tau(   3) = (   0.1485265   0.1348069   0.3691177  )
         4           Mg  tau(   4) = (   0.3242783   0.0000000  -0.0921020  )
         5           Mg  tau(   5) = (   0.3981848   0.0000000   0.1381483  )
         6           Si  tau(   6) = (   0.0555684   0.0000000   0.2815919  )
         7           Si  tau(   7) = (   0.1823874   0.0000000   0.0471222  )
         8           Si  tau(   8) = (   0.1980139   0.0000000   0.2128583  )
         9           Si  tau(   9) = (   0.2747841   0.1348069   0.0641608  )
        10           Si  tau(  10) = (   0.2904116   0.1348069   0.2298962  )
        11           Si  tau(  11) = (   0.4172287   0.1348069  -0.0045738  )
        12           Mg  tau(  12) = (   0.4714767   0.1348069   0.2827380  )
        13           Mg  tau(  13) = (   0.5447647   0.0000000  -0.0313061  )
        14           Mg  tau(  14) = (   0.6186746   0.0000000   0.1989388  )
        15           Mg  tau(  15) = (   0.7944263   0.1348069  -0.2622808  )
        16           Mg  tau(  16) = (   0.8683329   0.1348069  -0.0320305  )
        17           Si  tau(  17) = (   0.5257165   0.1348069   0.1114131  )
        18           Si  tau(  18) = (   0.6525355   0.1348069  -0.1230565  )
        19           Si  tau(  19) = (   0.6681619   0.1348069   0.0426795  )
        20           Si  tau(  20) = (   0.7449322   0.0000000  -0.1060180  )
        21           Si  tau(  21) = (   0.7605596   0.0000000   0.0597175  )
        22           Si  tau(  22) = (   0.8873767   0.0000000  -0.1747526  )

   Crystallographic axes

     site n.     atom                  positions (cryst. coord.)
         1           Mg  tau(   1) = (  0.0014130  0.0000000  0.9885796  )
         2           Mg  tau(   2) = (  0.0793544  0.4999999  0.3616849  )
         3           Mg  tau(   3) = (  0.1579572  0.4999999  0.9220384  )
         4           Mg  tau(   4) = (  0.3448683  0.0000000  0.0551125  )
         5           Mg  tau(   5) = (  0.4234675  0.0000000  0.6154748  )
         6           Si  tau(   6) = (  0.0590967  0.0000000  0.6578337  )
         7           Si  tau(   7) = (  0.1939681  0.0000000  0.2466899  )
         8           Si  tau(   8) = (  0.2105867  0.0000000  0.6203904  )
         9           Si  tau(   9) = (  0.2922315  0.4999999  0.3567626  )
        10           Si  tau(  10) = (  0.3088512  0.4999999  0.7304625  )
        11           Si  tau(  11) = (  0.4437205  0.4999999  0.3193163  )
        12           Mg  tau(  12) = (  0.5014131  0.4999999  0.9885796  )
        13           Mg  tau(  13) = (  0.5793544  0.0000000  0.3616850  )
        14           Mg  tau(  14) = (  0.6579572  0.0000000  0.9220383  )
        15           Mg  tau(  15) = (  0.8448683  0.4999999  0.0551125  )
        16           Mg  tau(  16) = (  0.9234675  0.4999999  0.6154748  )
        17           Si  tau(  17) = (  0.5590967  0.4999999  0.6578337  )
        18           Si  tau(  18) = (  0.6939681  0.4999999  0.2466899  )
        19           Si  tau(  19) = (  0.7105867  0.4999999  0.6203904  )
        20           Si  tau(  20) = (  0.7922315  0.0000000  0.3567626  )
        21           Si  tau(  21) = (  0.8088512  0.0000000  0.7304625  )
        22           Si  tau(  22) = (  0.9437205  0.0000000  0.3193163  )

     number of k points=   782  Methfessel-Paxton smearing, width (Ry)=  0.0441
                       cart. coord. in units 2pi/alat
        k(    1) = (   0.0000000   0.0000000   0.0000000), wk =   0.0012821
        k(    2) = (   0.0607099   0.0000000   0.1677216), wk =   0.0025641
        k(    3) = (   0.1214199   0.0000000   0.3354432), wk =   0.0025641
        k(    4) = (   0.1821298   0.0000000   0.5031647), wk =   0.0025641
        k(    5) = (   0.2428397   0.0000000   0.6708863), wk =   0.0025641
        k(    6) = (   0.3035496   0.0000000   0.8386079), wk =   0.0025641
        k(    7) = (   0.3642596   0.0000000   1.0063295), wk =   0.0025641
        k(    8) = (   0.0000000   0.1854505   0.0000000), wk =   0.0025641
        k(    9) = (   0.0607099   0.1854505   0.1677216), wk =   0.0025641
        k(   10) = (   0.1214199   0.1854505   0.3354432), wk =   0.0025641
        k(   11) = (   0.1821298   0.1854505   0.5031647), wk =   0.0025641
        k(   12) = (   0.2428397   0.1854505   0.6708863), wk =   0.0025641
        k(   13) = (   0.3035496   0.1854505   0.8386079), wk =   0.0025641
        k(   14) = (   0.3642596   0.1854505   1.0063295), wk =   0.0025641
        k(   15) = (  -0.3642596   0.1854505  -1.0063295), wk =   0.0025641
        k(   16) = (  -0.3035496   0.1854505  -0.8386079), wk =   0.0025641
        k(   17) = (  -0.2428397   0.1854505  -0.6708863), wk =   0.0025641
        k(   18) = (  -0.1821298   0.1854505  -0.5031647), wk =   0.0025641
        k(   19) = (  -0.1214199   0.1854505  -0.3354432), wk =   0.0025641
        k(   20) = (  -0.0607099   0.1854505  -0.1677216), wk =   0.0025641
        k(   21) = (   0.0000000   0.3709010   0.0000000), wk =   0.0025641
        k(   22) = (   0.0607099   0.3709010   0.1677216), wk =   0.0025641
        k(   23) = (   0.1214199   0.3709010   0.3354432), wk =   0.0025641
        k(   24) = (   0.1821298   0.3709010   0.5031647), wk =   0.0025641
        k(   25) = (   0.2428397   0.3709010   0.6708863), wk =   0.0025641
        k(   26) = (   0.3035496   0.3709010   0.8386079), wk =   0.0025641
        k(   27) = (   0.3642596   0.3709010   1.0063295), wk =   0.0025641
        k(   28) = (  -0.3642596   0.3709010  -1.0063295), wk =   0.0025641
        k(   29) = (  -0.3035496   0.3709010  -0.8386079), wk =   0.0025641
        k(   30) = (  -0.2428397   0.3709010  -0.6708863), wk =   0.0025641
        k(   31) = (  -0.1821298   0.3709010  -0.5031647), wk =   0.0025641
        k(   32) = (  -0.1214199   0.3709010  -0.3354432), wk =   0.0025641
        k(   33) = (  -0.0607099   0.3709010  -0.1677216), wk =   0.0025641
        k(   34) = (   0.0000000   0.5563515   0.0000000), wk =   0.0025641
        k(   35) = (   0.0607099   0.5563515   0.1677216), wk =   0.0025641
        k(   36) = (   0.1214199   0.5563515   0.3354432), wk =   0.0025641
        k(   37) = (   0.1821298   0.5563515   0.5031647), wk =   0.0025641
        k(   38) = (   0.2428397   0.5563515   0.6708863), wk =   0.0025641
        k(   39) = (   0.3035496   0.5563515   0.8386079), wk =   0.0025641
        k(   40) = (   0.3642596   0.5563515   1.0063295), wk =   0.0025641
        k(   41) = (  -0.3642596   0.5563515  -1.0063295), wk =   0.0025641
        k(   42) = (  -0.3035496   0.5563515  -0.8386079), wk =   0.0025641
        k(   43) = (  -0.2428397   0.5563515  -0.6708863), wk =   0.0025641
        k(   44) = (  -0.1821298   0.5563515  -0.5031647), wk =   0.0025641
        k(   45) = (  -0.1214199   0.5563515  -0.3354432), wk =   0.0025641
        k(   46) = (  -0.0607099   0.5563515  -0.1677216), wk =   0.0025641
        k(   47) = (   0.0000000   0.7418019   0.0000000), wk =   0.0025641
        k(   48) = (   0.0607099   0.7418019   0.1677216), wk =   0.0025641
        k(   49) = (   0.1214199   0.7418019   0.3354432), wk =   0.0025641
        k(   50) = (   0.1821298   0.7418019   0.5031647), wk =   0.0025641
        k(   51) = (   0.2428397   0.7418019   0.6708863), wk =   0.0025641
        k(   52) = (   0.3035496   0.7418019   0.8386079), wk =   0.0025641
        k(   53) = (   0.3642596   0.7418019   1.0063295), wk =   0.0025641
        k(   54) = (  -0.3642596   0.7418019  -1.0063295), wk =   0.0025641
        k(   55) = (  -0.3035496   0.7418019  -0.8386079), wk =   0.0025641
        k(   56) = (  -0.2428397   0.7418019  -0.6708863), wk =   0.0025641
        k(   57) = (  -0.1821298   0.7418019  -0.5031647), wk =   0.0025641
        k(   58) = (  -0.1214199   0.7418019  -0.3354432), wk =   0.0025641
        k(   59) = (  -0.0607099   0.7418019  -0.1677216), wk =   0.0025641
        k(   60) = (   0.0000000   0.9272524   0.0000000), wk =   0.0025641
        k(   61) = (   0.0607099   0.9272524   0.1677216), wk =   0.0025641
        k(   62) = (   0.1214199   0.9272524   0.3354432), wk =   0.0025641
        k(   63) = (   0.1821298   0.9272524   0.5031647), wk =   0.0025641
        k(   64) = (   0.2428397   0.9272524   0.6708863), wk =   0.0025641
        k(   65) = (   0.3035496   0.9272524   0.8386079), wk =   0.0025641
        k(   66) = (   0.3642596   0.9272524   1.0063295), wk =   0.0025641
        k(   67) = (  -0.3642596   0.9272524  -1.0063295), wk =   0.0025641
        k(   68) = (  -0.3035496   0.9272524  -0.8386079), wk =   0.0025641
        k(   69) = (  -0.2428397   0.9272524  -0.6708863), wk =   0.0025641
        k(   70) = (  -0.1821298   0.9272524  -0.5031647), wk =   0.0025641
        k(   71) = (  -0.1214199   0.9272524  -0.3354432), wk =   0.0025641
        k(   72) = (  -0.0607099   0.9272524  -0.1677216), wk =   0.0025641
        k(   73) = (   0.0000000   1.1127029   0.0000000), wk =   0.0025641
        k(   74) = (   0.0607099   1.1127029   0.1677216), wk =   0.0025641
        k(   75) = (   0.1214199   1.1127029   0.3354432), wk =   0.0025641
        k(   76) = (   0.1821298   1.1127029   0.5031647), wk =   0.0025641
        k(   77) = (   0.2428397   1.1127029   0.6708863), wk =   0.0025641
        k(   78) = (   0.3035496   1.1127029   0.8386079), wk =   0.0025641
        k(   79) = (   0.3642596   1.1127029   1.0063295), wk =   0.0025641
        k(   80) = (  -0.3642596   1.1127029  -1.0063295), wk =   0.0025641
        k(   81) = (  -0.3035496   1.1127029  -0.8386079), wk =   0.0025641
        k(   82) = (  -0.2428397   1.1127029  -0.6708863), wk =   0.0025641
        k(   83) = (  -0.1821298   1.1127029  -0.5031647), wk =   0.0025641
        k(   84) = (  -0.1214199   1.1127029  -0.3354432), wk =   0.0025641
        k(   85) = (  -0.0607099   1.1127029  -0.1677216), wk =   0.0025641
        k(   86) = (   0.0000000   1.2981534   0.0000000), wk =   0.0025641
        k(   87) = (   0.0607099   1.2981534   0.1677216), wk =   0.0025641
        k(   88) = (   0.1214199   1.2981534   0.3354432), wk =   0.0025641
        k(   89) = (   0.1821298   1.2981534   0.5031647), wk =   0.0025641
        k(   90) = (   0.2428397   1.2981534   0.6708863), wk =   0.0025641
        k(   91) = (   0.3035496   1.2981534   0.8386079), wk =   0.0025641
        k(   92) = (   0.3642596   1.2981534   1.0063295), wk =   0.0025641
        k(   93) = (  -0.3642596   1.2981534  -1.0063295), wk =   0.0025641
        k(   94) = (  -0.3035496   1.2981534  -0.8386079), wk =   0.0025641
        k(   95) = (  -0.2428397   1.2981534  -0.6708863), wk =   0.0025641
        k(   96) = (  -0.1821298   1.2981534  -0.5031647), wk =   0.0025641
        k(   97) = (  -0.1214199   1.2981534  -0.3354432), wk =   0.0025641
        k(   98) = (  -0.0607099   1.2981534  -0.1677216), wk =   0.0025641
        k(   99) = (   0.0000000   1.4836039   0.0000000), wk =   0.0025641
        k(  100) = (   0.0607099   1.4836039   0.1677216), wk =   0.0025641
        k(  101) = (   0.1214199   1.4836039   0.3354432), wk =   0.0025641
        k(  102) = (   0.1821298   1.4836039   0.5031647), wk =   0.0025641
        k(  103) = (   0.2428397   1.4836039   0.6708863), wk =   0.0025641
        k(  104) = (   0.3035496   1.4836039   0.8386079), wk =   0.0025641
        k(  105) = (   0.3642596   1.4836039   1.0063295), wk =   0.0025641
        k(  106) = (  -0.3642596   1.4836039  -1.0063295), wk =   0.0025641
        k(  107) = (  -0.3035496   1.4836039  -0.8386079), wk =   0.0025641
        k(  108) = (  -0.2428397   1.4836039  -0.6708863), wk =   0.0025641
        k(  109) = (  -0.1821298   1.4836039  -0.5031647), wk =   0.0025641
        k(  110) = (  -0.1214199   1.4836039  -0.3354432), wk =   0.0025641
        k(  111) = (  -0.0607099   1.4836039  -0.1677216), wk =   0.0025641
        k(  112) = (   0.0000000   1.6690544   0.0000000), wk =   0.0025641
        k(  113) = (   0.0607099   1.6690544   0.1677216), wk =   0.0025641
        k(  114) = (   0.1214199   1.6690544   0.3354432), wk =   0.0025641
        k(  115) = (   0.1821298   1.6690544   0.5031647), wk =   0.0025641
        k(  116) = (   0.2428397   1.6690544   0.6708863), wk =   0.0025641
        k(  117) = (   0.3035496   1.6690544   0.8386079), wk =   0.0025641
        k(  118) = (   0.3642596   1.6690544   1.0063295), wk =   0.0025641
        k(  119) = (  -0.3642596   1.6690544  -1.0063295), wk =   0.0025641
        k(  120) = (  -0.3035496   1.6690544  -0.8386079), wk =   0.0025641
        k(  121) = (  -0.2428397   1.6690544  -0.6708863), wk =   0.0025641
        k(  122) = (  -0.1821298   1.6690544  -0.5031647), wk =   0.0025641
        k(  123) = (  -0.1214199   1.6690544  -0.3354432), wk =   0.0025641
        k(  124) = (  -0.0607099   1.6690544  -0.1677216), wk =   0.0025641
        k(  125) = (   0.0000000  -1.8545049   0.0000000), wk =   0.0012821
        k(  126) = (   0.0607099  -1.8545049   0.1677216), wk =   0.0025641
        k(  127) = (   0.1214199  -1.8545049   0.3354432), wk =   0.0025641
        k(  128) = (   0.1821298  -1.8545049   0.5031647), wk =   0.0025641
        k(  129) = (   0.2428397  -1.8545049   0.6708863), wk =   0.0025641
        k(  130) = (   0.3035496  -1.8545049   0.8386079), wk =   0.0025641
        k(  131) = (   0.3642596  -1.8545049   1.0063295), wk =   0.0025641
        k(  132) = (   0.1772491   0.0000000   0.0000000), wk =   0.0025641
        k(  133) = (   0.2379591   0.0000000   0.1677216), wk =   0.0025641
        k(  134) = (   0.2986690   0.0000000   0.3354432), wk =   0.0025641
        k(  135) = (   0.3593789   0.0000000   0.5031647), wk =   0.0025641
        k(  136) = (   0.4200888   0.0000000   0.6708863), wk =   0.0025641
        k(  137) = (   0.4807988   0.0000000   0.8386079), wk =   0.0025641
        k(  138) = (   0.5415087   0.0000000   1.0063295), wk =   0.0025641
        k(  139) = (  -0.1870104   0.0000000  -1.0063295), wk =   0.0025641
        k(  140) = (  -0.1263005   0.0000000  -0.8386079), wk =   0.0025641
        k(  141) = (  -0.0655906   0.0000000  -0.6708863), wk =   0.0025641
        k(  142) = (  -0.0048806   0.0000000  -0.5031647), wk =   0.0025641
        k(  143) = (   0.0558293   0.0000000  -0.3354432), wk =   0.0025641
        k(  144) = (   0.1165392   0.0000000  -0.1677216), wk =   0.0025641
        k(  145) = (   0.1772491   0.1854505   0.0000000), wk =   0.0025641
        k(  146) = (   0.2379591   0.1854505   0.1677216), wk =   0.0025641
        k(  147) = (   0.2986690   0.1854505   0.3354432), wk =   0.0025641
        k(  148) = (   0.3593789   0.1854505   0.5031647), wk =   0.0025641
        k(  149) = (   0.4200888   0.1854505   0.6708863), wk =   0.0025641
        k(  150) = (   0.4807988   0.1854505   0.8386079), wk =   0.0025641
        k(  151) = (   0.5415087   0.1854505   1.0063295), wk =   0.0025641
        k(  152) = (  -0.1870104   0.1854505  -1.0063295), wk =   0.0025641
        k(  153) = (  -0.1263005   0.1854505  -0.8386079), wk =   0.0025641
        k(  154) = (  -0.0655906   0.1854505  -0.6708863), wk =   0.0025641
        k(  155) = (  -0.0048806   0.1854505  -0.5031647), wk =   0.0025641
        k(  156) = (   0.0558293   0.1854505  -0.3354432), wk =   0.0025641
        k(  157) = (   0.1165392   0.1854505  -0.1677216), wk =   0.0025641
        k(  158) = (   0.1772491   0.3709010   0.0000000), wk =   0.0025641
        k(  159) = (   0.2379591   0.3709010   0.1677216), wk =   0.0025641
        k(  160) = (   0.2986690   0.3709010   0.3354432), wk =   0.0025641
        k(  161) = (   0.3593789   0.3709010   0.5031647), wk =   0.0025641
        k(  162) = (   0.4200888   0.3709010   0.6708863), wk =   0.0025641
        k(  163) = (   0.4807988   0.3709010   0.8386079), wk =   0.0025641
        k(  164) = (   0.5415087   0.3709010   1.0063295), wk =   0.0025641
        k(  165) = (  -0.1870104   0.3709010  -1.0063295), wk =   0.0025641
        k(  166) = (  -0.1263005   0.3709010  -0.8386079), wk =   0.0025641
        k(  167) = (  -0.0655906   0.3709010  -0.6708863), wk =   0.0025641
        k(  168) = (  -0.0048806   0.3709010  -0.5031647), wk =   0.0025641
        k(  169) = (   0.0558293   0.3709010  -0.3354432), wk =   0.0025641
        k(  170) = (   0.1165392   0.3709010  -0.1677216), wk =   0.0025641
        k(  171) = (   0.1772491   0.5563515   0.0000000), wk =   0.0025641
        k(  172) = (   0.2379591   0.5563515   0.1677216), wk =   0.0025641
        k(  173) = (   0.2986690   0.5563515   0.3354432), wk =   0.0025641
        k(  174) = (   0.3593789   0.5563515   0.5031647), wk =   0.0025641
        k(  175) = (   0.4200888   0.5563515   0.6708863), wk =   0.0025641
        k(  176) = (   0.4807988   0.5563515   0.8386079), wk =   0.0025641
        k(  177) = (   0.5415087   0.5563515   1.0063295), wk =   0.0025641
        k(  178) = (  -0.1870104   0.5563515  -1.0063295), wk =   0.0025641
        k(  179) = (  -0.1263005   0.5563515  -0.8386079), wk =   0.0025641
        k(  180) = (  -0.0655906   0.5563515  -0.6708863), wk =   0.0025641
        k(  181) = (  -0.0048806   0.5563515  -0.5031647), wk =   0.0025641
        k(  182) = (   0.0558293   0.5563515  -0.3354432), wk =   0.0025641
        k(  183) = (   0.1165392   0.5563515  -0.1677216), wk =   0.0025641
        k(  184) = (   0.1772491   0.7418019   0.0000000), wk =   0.0025641
        k(  185) = (   0.2379591   0.7418019   0.1677216), wk =   0.0025641
        k(  186) = (   0.2986690   0.7418019   0.3354432), wk =   0.0025641
        k(  187) = (   0.3593789   0.7418019   0.5031647), wk =   0.0025641
        k(  188) = (   0.4200888   0.7418019   0.6708863), wk =   0.0025641
        k(  189) = (   0.4807988   0.7418019   0.8386079), wk =   0.0025641
        k(  190) = (   0.5415087   0.7418019   1.0063295), wk =   0.0025641
        k(  191) = (  -0.1870104   0.7418019  -1.0063295), wk =   0.0025641
        k(  192) = (  -0.1263005   0.7418019  -0.8386079), wk =   0.0025641
        k(  193) = (  -0.0655906   0.7418019  -0.6708863), wk =   0.0025641
        k(  194) = (  -0.0048806   0.7418019  -0.5031647), wk =   0.0025641
        k(  195) = (   0.0558293   0.7418019  -0.3354432), wk =   0.0025641
        k(  196) = (   0.1165392   0.7418019  -0.1677216), wk =   0.0025641
        k(  197) = (   0.1772491   0.9272524   0.0000000), wk =   0.0025641
        k(  198) = (   0.2379591   0.9272524   0.1677216), wk =   0.0025641
        k(  199) = (   0.2986690   0.9272524   0.3354432), wk =   0.0025641
        k(  200) = (   0.3593789   0.9272524   0.5031647), wk =   0.0025641
        k(  201) = (   0.4200888   0.9272524   0.6708863), wk =   0.0025641
        k(  202) = (   0.4807988   0.9272524   0.8386079), wk =   0.0025641
        k(  203) = (   0.5415087   0.9272524   1.0063295), wk =   0.0025641
        k(  204) = (  -0.1870104   0.9272524  -1.0063295), wk =   0.0025641
        k(  205) = (  -0.1263005   0.9272524  -0.8386079), wk =   0.0025641
        k(  206) = (  -0.0655906   0.9272524  -0.6708863), wk =   0.0025641
        k(  207) = (  -0.0048806   0.9272524  -0.5031647), wk =   0.0025641
        k(  208) = (   0.0558293   0.9272524  -0.3354432), wk =   0.0025641
        k(  209) = (   0.1165392   0.9272524  -0.1677216), wk =   0.0025641
        k(  210) = (   0.1772491   1.1127029   0.0000000), wk =   0.0025641
        k(  211) = (   0.2379591   1.1127029   0.1677216), wk =   0.0025641
        k(  212) = (   0.2986690   1.1127029   0.3354432), wk =   0.0025641
        k(  213) = (   0.3593789   1.1127029   0.5031647), wk =   0.0025641
        k(  214) = (   0.4200888   1.1127029   0.6708863), wk =   0.0025641
        k(  215) = (   0.4807988   1.1127029   0.8386079), wk =   0.0025641
        k(  216) = (   0.5415087   1.1127029   1.0063295), wk =   0.0025641
        k(  217) = (  -0.1870104   1.1127029  -1.0063295), wk =   0.0025641
        k(  218) = (  -0.1263005   1.1127029  -0.8386079), wk =   0.0025641
        k(  219) = (  -0.0655906   1.1127029  -0.6708863), wk =   0.0025641
        k(  220) = (  -0.0048806   1.1127029  -0.5031647), wk =   0.0025641
        k(  221) = (   0.0558293   1.1127029  -0.3354432), wk =   0.0025641
        k(  222) = (   0.1165392   1.1127029  -0.1677216), wk =   0.0025641
        k(  223) = (   0.1772491   1.2981534   0.0000000), wk =   0.0025641
        k(  224) = (   0.2379591   1.2981534   0.1677216), wk =   0.0025641
        k(  225) = (   0.2986690   1.2981534   0.3354432), wk =   0.0025641
        k(  226) = (   0.3593789   1.2981534   0.5031647), wk =   0.0025641
        k(  227) = (   0.4200888   1.2981534   0.6708863), wk =   0.0025641
        k(  228) = (   0.4807988   1.2981534   0.8386079), wk =   0.0025641
        k(  229) = (   0.5415087   1.2981534   1.0063295), wk =   0.0025641
        k(  230) = (  -0.1870104   1.2981534  -1.0063295), wk =   0.0025641
        k(  231) = (  -0.1263005   1.2981534  -0.8386079), wk =   0.0025641
        k(  232) = (  -0.0655906   1.2981534  -0.6708863), wk =   0.0025641
        k(  233) = (  -0.0048806   1.2981534  -0.5031647), wk =   0.0025641
        k(  234) = (   0.0558293   1.2981534  -0.3354432), wk =   0.0025641
        k(  235) = (   0.1165392   1.2981534  -0.1677216), wk =   0.0025641
        k(  236) = (   0.1772491   1.4836039   0.0000000), wk =   0.0025641
        k(  237) = (   0.2379591   1.4836039   0.1677216), wk =   0.0025641
        k(  238) = (   0.2986690   1.4836039   0.3354432), wk =   0.0025641
        k(  239) = (   0.3593789   1.4836039   0.5031647), wk =   0.0025641
        k(  240) = (   0.4200888   1.4836039   0.6708863), wk =   0.0025641
        k(  241) = (   0.4807988   1.4836039   0.8386079), wk =   0.0025641
        k(  242) = (   0.5415087   1.4836039   1.0063295), wk =   0.0025641
        k(  243) = (  -0.1870104   1.4836039  -1.0063295), wk =   0.0025641
        k(  244) = (  -0.1263005   1.4836039  -0.8386079), wk =   0.0025641
        k(  245) = (  -0.0655906   1.4836039  -0.6708863), wk =   0.0025641
        k(  246) = (  -0.0048806   1.4836039  -0.5031647), wk =   0.0025641
        k(  247) = (   0.0558293   1.4836039  -0.3354432), wk =   0.0025641
        k(  248) = (   0.1165392   1.4836039  -0.1677216), wk =   0.0025641
        k(  249) = (   0.1772491   1.6690544   0.0000000), wk =   0.0025641
        k(  250) = (   0.2379591   1.6690544   0.1677216), wk =   0.0025641
        k(  251) = (   0.2986690   1.6690544   0.3354432), wk =   0.0025641
        k(  252) = (   0.3593789   1.6690544   0.5031647), wk =   0.0025641
        k(  253) = (   0.4200888   1.6690544   0.6708863), wk =   0.0025641
        k(  254) = (   0.4807988   1.6690544   0.8386079), wk =   0.0025641
        k(  255) = (   0.5415087   1.6690544   1.0063295), wk =   0.0025641
        k(  256) = (  -0.1870104   1.6690544  -1.0063295), wk =   0.0025641
        k(  257) = (  -0.1263005   1.6690544  -0.8386079), wk =   0.0025641
        k(  258) = (  -0.0655906   1.6690544  -0.6708863), wk =   0.0025641
        k(  259) = (  -0.0048806   1.6690544  -0.5031647), wk =   0.0025641
        k(  260) = (   0.0558293   1.6690544  -0.3354432), wk =   0.0025641
        k(  261) = (   0.1165392   1.6690544  -0.1677216), wk =   0.0025641
        k(  262) = (   0.1772491  -1.8545049   0.0000000), wk =   0.0025641
        k(  263) = (   0.2379591  -1.8545049   0.1677216), wk =   0.0025641
        k(  264) = (   0.2986690  -1.8545049   0.3354432), wk =   0.0025641
        k(  265) = (   0.3593789  -1.8545049   0.5031647), wk =   0.0025641
        k(  266) = (   0.4200888  -1.8545049   0.6708863), wk =   0.0025641
        k(  267) = (   0.4807988  -1.8545049   0.8386079), wk =   0.0025641
        k(  268) = (   0.5415087  -1.8545049   1.0063295), wk =   0.0025641
        k(  269) = (  -0.1870104  -1.8545049  -1.0063295), wk =   0.0025641
        k(  270) = (  -0.1263005  -1.8545049  -0.8386079), wk =   0.0025641
        k(  271) = (  -0.0655906  -1.8545049  -0.6708863), wk =   0.0025641
        k(  272) = (  -0.0048806  -1.8545049  -0.5031647), wk =   0.0025641
        k(  273) = (   0.0558293  -1.8545049  -0.3354432), wk =   0.0025641
        k(  274) = (   0.1165392  -1.8545049  -0.1677216), wk =   0.0025641
        k(  275) = (   0.1772491  -1.6690544   0.0000000), wk =   0.0025641
        k(  276) = (   0.2379591  -1.6690544   0.1677216), wk =   0.0025641
        k(  277) = (   0.2986690  -1.6690544   0.3354432), wk =   0.0025641
        k(  278) = (   0.3593789  -1.6690544   0.5031647), wk =   0.0025641
        k(  279) = (   0.4200888  -1.6690544   0.6708863), wk =   0.0025641
        k(  280) = (   0.4807988  -1.6690544   0.8386079), wk =   0.0025641
        k(  281) = (   0.5415087  -1.6690544   1.0063295), wk =   0.0025641
        k(  282) = (  -0.1870104  -1.6690544  -1.0063295), wk =   0.0025641
        k(  283) = (  -0.1263005  -1.6690544  -0.8386079), wk =   0.0025641
        k(  284) = (  -0.0655906  -1.6690544  -0.6708863), wk =   0.0025641
        k(  285) = (  -0.0048806  -1.6690544  -0.5031647), wk =   0.0025641
        k(  286) = (   0.0558293  -1.6690544  -0.3354432), wk =   0.0025641
        k(  287) = (   0.1165392  -1.6690544  -0.1677216), wk =   0.0025641
        k(  288) = (   0.1772491  -1.4836039   0.0000000), wk =   0.0025641
        k(  289) = (   0.2379591  -1.4836039   0.1677216), wk =   0.0025641
        k(  290) = (   0.2986690  -1.4836039   0.3354432), wk =   0.0025641
        k(  291) = (   0.3593789  -1.4836039   0.5031647), wk =   0.0025641
        k(  292) = (   0.4200888  -1.4836039   0.6708863), wk =   0.0025641
        k(  293) = (   0.4807988  -1.4836039   0.8386079), wk =   0.0025641
        k(  294) = (   0.5415087  -1.4836039   1.0063295), wk =   0.0025641
        k(  295) = (  -0.1870104  -1.4836039  -1.0063295), wk =   0.0025641
        k(  296) = (  -0.1263005  -1.4836039  -0.8386079), wk =   0.0025641
        k(  297) = (  -0.0655906  -1.4836039  -0.6708863), wk =   0.0025641
        k(  298) = (  -0.0048806  -1.4836039  -0.5031647), wk =   0.0025641
        k(  299) = (   0.0558293  -1.4836039  -0.3354432), wk =   0.0025641
        k(  300) = (   0.1165392  -1.4836039  -0.1677216), wk =   0.0025641
        k(  301) = (   0.1772491  -1.2981534   0.0000000), wk =   0.0025641
        k(  302) = (   0.2379591  -1.2981534   0.1677216), wk =   0.0025641
        k(  303) = (   0.2986690  -1.2981534   0.3354432), wk =   0.0025641
        k(  304) = (   0.3593789  -1.2981534   0.5031647), wk =   0.0025641
        k(  305) = (   0.4200888  -1.2981534   0.6708863), wk =   0.0025641
        k(  306) = (   0.4807988  -1.2981534   0.8386079), wk =   0.0025641
        k(  307) = (   0.5415087  -1.2981534   1.0063295), wk =   0.0025641
        k(  308) = (  -0.1870104  -1.2981534  -1.0063295), wk =   0.0025641
        k(  309) = (  -0.1263005  -1.2981534  -0.8386079), wk =   0.0025641
        k(  310) = (  -0.0655906  -1.2981534  -0.6708863), wk =   0.0025641
        k(  311) = (  -0.0048806  -1.2981534  -0.5031647), wk =   0.0025641
        k(  312) = (   0.0558293  -1.2981534  -0.3354432), wk =   0.0025641
        k(  313) = (   0.1165392  -1.2981534  -0.1677216), wk =   0.0025641
        k(  314) = (   0.1772491  -1.1127029   0.0000000), wk =   0.0025641
        k(  315) = (   0.2379591  -1.1127029   0.1677216), wk =   0.0025641
        k(  316) = (   0.2986690  -1.1127029   0.3354432), wk =   0.0025641
        k(  317) = (   0.3593789  -1.1127029   0.5031647), wk =   0.0025641
        k(  318) = (   0.4200888  -1.1127029   0.6708863), wk =   0.0025641
        k(  319) = (   0.4807988  -1.1127029   0.8386079), wk =   0.0025641
        k(  320) = (   0.5415087  -1.1127029   1.0063295), wk =   0.0025641
        k(  321) = (  -0.1870104  -1.1127029  -1.0063295), wk =   0.0025641
        k(  322) = (  -0.1263005  -1.1127029  -0.8386079), wk =   0.0025641
        k(  323) = (  -0.0655906  -1.1127029  -0.6708863), wk =   0.0025641
        k(  324) = (  -0.0048806  -1.1127029  -0.5031647), wk =   0.0025641
        k(  325) = (   0.0558293  -1.1127029  -0.3354432), wk =   0.0025641
        k(  326) = (   0.1165392  -1.1127029  -0.1677216), wk =   0.0025641
        k(  327) = (   0.1772491  -0.9272524   0.0000000), wk =   0.0025641
        k(  328) = (   0.2379591  -0.9272524   0.1677216), wk =   0.0025641
        k(  329) = (   0.2986690  -0.9272524   0.3354432), wk =   0.0025641
        k(  330) = (   0.3593789  -0.9272524   0.5031647), wk =   0.0025641
        k(  331) = (   0.4200888  -0.9272524   0.6708863), wk =   0.0025641
        k(  332) = (   0.4807988  -0.9272524   0.8386079), wk =   0.0025641
        k(  333) = (   0.5415087  -0.9272524   1.0063295), wk =   0.0025641
        k(  334) = (  -0.1870104  -0.9272524  -1.0063295), wk =   0.0025641
        k(  335) = (  -0.1263005  -0.9272524  -0.8386079), wk =   0.0025641
        k(  336) = (  -0.0655906  -0.9272524  -0.6708863), wk =   0.0025641
        k(  337) = (  -0.0048806  -0.9272524  -0.5031647), wk =   0.0025641
        k(  338) = (   0.0558293  -0.9272524  -0.3354432), wk =   0.0025641
        k(  339) = (   0.1165392  -0.9272524  -0.1677216), wk =   0.0025641
        k(  340) = (   0.1772491  -0.7418019   0.0000000), wk =   0.0025641
        k(  341) = (   0.2379591  -0.7418019   0.1677216), wk =   0.0025641
        k(  342) = (   0.2986690  -0.7418019   0.3354432), wk =   0.0025641
        k(  343) = (   0.3593789  -0.7418019   0.5031647), wk =   0.0025641
        k(  344) = (   0.4200888  -0.7418019   0.6708863), wk =   0.0025641
        k(  345) = (   0.4807988  -0.7418019   0.8386079), wk =   0.0025641
        k(  346) = (   0.5415087  -0.7418019   1.0063295), wk =   0.0025641
        k(  347) = (  -0.1870104  -0.7418019  -1.0063295), wk =   0.0025641
        k(  348) = (  -0.1263005  -0.7418019  -0.8386079), wk =   0.0025641
        k(  349) = (  -0.0655906  -0.7418019  -0.6708863), wk =   0.0025641
        k(  350) = (  -0.0048806  -0.7418019  -0.5031647), wk =   0.0025641
        k(  351) = (   0.0558293  -0.7418019  -0.3354432), wk =   0.0025641
        k(  352) = (   0.1165392  -0.7418019  -0.1677216), wk =   0.0025641
        k(  353) = (   0.1772491  -0.5563515   0.0000000), wk =   0.0025641
        k(  354) = (   0.2379591  -0.5563515   0.1677216), wk =   0.0025641
        k(  355) = (   0.2986690  -0.5563515   0.3354432), wk =   0.0025641
        k(  356) = (   0.3593789  -0.5563515   0.5031647), wk =   0.0025641
        k(  357) = (   0.4200888  -0.5563515   0.6708863), wk =   0.0025641
        k(  358) = (   0.4807988  -0.5563515   0.8386079), wk =   0.0025641
        k(  359) = (   0.5415087  -0.5563515   1.0063295), wk =   0.0025641
        k(  360) = (  -0.1870104  -0.5563515  -1.0063295), wk =   0.0025641
        k(  361) = (  -0.1263005  -0.5563515  -0.8386079), wk =   0.0025641
        k(  362) = (  -0.0655906  -0.5563515  -0.6708863), wk =   0.0025641
        k(  363) = (  -0.0048806  -0.5563515  -0.5031647), wk =   0.0025641
        k(  364) = (   0.0558293  -0.5563515  -0.3354432), wk =   0.0025641
        k(  365) = (   0.1165392  -0.5563515  -0.1677216), wk =   0.0025641
        k(  366) = (   0.1772491  -0.3709010   0.0000000), wk =   0.0025641
        k(  367) = (   0.2379591  -0.3709010   0.1677216), wk =   0.0025641
        k(  368) = (   0.2986690  -0.3709010   0.3354432), wk =   0.0025641
        k(  369) = (   0.3593789  -0.3709010   0.5031647), wk =   0.0025641
        k(  370) = (   0.4200888  -0.3709010   0.6708863), wk =   0.0025641
        k(  371) = (   0.4807988  -0.3709010   0.8386079), wk =   0.0025641
        k(  372) = (   0.5415087  -0.3709010   1.0063295), wk =   0.0025641
        k(  373) = (  -0.1870104  -0.3709010  -1.0063295), wk =   0.0025641
        k(  374) = (  -0.1263005  -0.3709010  -0.8386079), wk =   0.0025641
        k(  375) = (  -0.0655906  -0.3709010  -0.6708863), wk =   0.0025641
        k(  376) = (  -0.0048806  -0.3709010  -0.5031647), wk =   0.0025641
        k(  377) = (   0.0558293  -0.3709010  -0.3354432), wk =   0.0025641
        k(  378) = (   0.1165392  -0.3709010  -0.1677216), wk =   0.0025641
        k(  379) = (   0.1772491  -0.1854505   0.0000000), wk =   0.0025641
        k(  380) = (   0.2379591  -0.1854505   0.1677216), wk =   0.0025641
        k(  381) = (   0.2986690  -0.1854505   0.3354432), wk =   0.0025641
        k(  382) = (   0.3593789  -0.1854505   0.5031647), wk =   0.0025641
        k(  383) = (   0.4200888  -0.1854505   0.6708863), wk =   0.0025641
        k(  384) = (   0.4807988  -0.1854505   0.8386079), wk =   0.0025641
        k(  385) = (   0.5415087  -0.1854505   1.0063295), wk =   0.0025641
        k(  386) = (  -0.1870104  -0.1854505  -1.0063295), wk =   0.0025641
        k(  387) = (  -0.1263005  -0.1854505  -0.8386079), wk =   0.0025641
        k(  388) = (  -0.0655906  -0.1854505  -0.6708863), wk =   0.0025641
        k(  389) = (  -0.0048806  -0.1854505  -0.5031647), wk =   0.0025641
        k(  390) = (   0.0558293  -0.1854505  -0.3354432), wk =   0.0025641
        k(  391) = (   0.1165392  -0.1854505  -0.1677216), wk =   0.0025641
        k(  392) = (   0.3544983   0.0000000   0.0000000), wk =   0.0025641
        k(  393) = (   0.4152082   0.0000000   0.1677216), wk =   0.0025641
        k(  394) = (   0.4759181   0.0000000   0.3354432), wk =   0.0025641
        k(  395) = (   0.5366280   0.0000000   0.5031647), wk =   0.0025641
        k(  396) = (   0.5973380   0.0000000   0.6708863), wk =   0.0025641
        k(  397) = (   0.6580479   0.0000000   0.8386079), wk =   0.0025641
        k(  398) = (   0.7187578   0.0000000   1.0063295), wk =   0.0025641
        k(  399) = (  -0.0097613   0.0000000  -1.0063295), wk =   0.0025641
        k(  400) = (   0.0509486   0.0000000  -0.8386079), wk =   0.0025641
        k(  401) = (   0.1116586   0.0000000  -0.6708863), wk =   0.0025641
        k(  402) = (   0.1723685   0.0000000  -0.5031647), wk =   0.0025641
        k(  403) = (   0.2330784   0.0000000  -0.3354432), wk =   0.0025641
        k(  404) = (   0.2937883   0.0000000  -0.1677216), wk =   0.0025641
        k(  405) = (   0.3544983   0.1854505   0.0000000), wk =   0.0025641
        k(  406) = (   0.4152082   0.1854505   0.1677216), wk =   0.0025641
        k(  407) = (   0.4759181   0.1854505   0.3354432), wk =   0.0025641
        k(  408) = (   0.5366280   0.1854505   0.5031647), wk =   0.0025641
        k(  409) = (   0.5973380   0.1854505   0.6708863), wk =   0.0025641
        k(  410) = (   0.6580479   0.1854505   0.8386079), wk =   0.0025641
        k(  411) = (   0.7187578   0.1854505   1.0063295), wk =   0.0025641
        k(  412) = (  -0.0097613   0.1854505  -1.0063295), wk =   0.0025641
        k(  413) = (   0.0509486   0.1854505  -0.8386079), wk =   0.0025641
        k(  414) = (   0.1116586   0.1854505  -0.6708863), wk =   0.0025641
        k(  415) = (   0.1723685   0.1854505  -0.5031647), wk =   0.0025641
        k(  416) = (   0.2330784   0.1854505  -0.3354432), wk =   0.0025641
        k(  417) = (   0.2937883   0.1854505  -0.1677216), wk =   0.0025641
        k(  418) = (   0.3544983   0.3709010   0.0000000), wk =   0.0025641
        k(  419) = (   0.4152082   0.3709010   0.1677216), wk =   0.0025641
        k(  420) = (   0.4759181   0.3709010   0.3354432), wk =   0.0025641
        k(  421) = (   0.5366280   0.3709010   0.5031647), wk =   0.0025641
        k(  422) = (   0.5973380   0.3709010   0.6708863), wk =   0.0025641
        k(  423) = (   0.6580479   0.3709010   0.8386079), wk =   0.0025641
        k(  424) = (   0.7187578   0.3709010   1.0063295), wk =   0.0025641
        k(  425) = (  -0.0097613   0.3709010  -1.0063295), wk =   0.0025641
        k(  426) = (   0.0509486   0.3709010  -0.8386079), wk =   0.0025641
        k(  427) = (   0.1116586   0.3709010  -0.6708863), wk =   0.0025641
        k(  428) = (   0.1723685   0.3709010  -0.5031647), wk =   0.0025641
        k(  429) = (   0.2330784   0.3709010  -0.3354432), wk =   0.0025641
        k(  430) = (   0.2937883   0.3709010  -0.1677216), wk =   0.0025641
        k(  431) = (   0.3544983   0.5563515   0.0000000), wk =   0.0025641
        k(  432) = (   0.4152082   0.5563515   0.1677216), wk =   0.0025641
        k(  433) = (   0.4759181   0.5563515   0.3354432), wk =   0.0025641
        k(  434) = (   0.5366280   0.5563515   0.5031647), wk =   0.0025641
        k(  435) = (   0.5973380   0.5563515   0.6708863), wk =   0.0025641
        k(  436) = (   0.6580479   0.5563515   0.8386079), wk =   0.0025641
        k(  437) = (   0.7187578   0.5563515   1.0063295), wk =   0.0025641
        k(  438) = (  -0.0097613   0.5563515  -1.0063295), wk =   0.0025641
        k(  439) = (   0.0509486   0.5563515  -0.8386079), wk =   0.0025641
        k(  440) = (   0.1116586   0.5563515  -0.6708863), wk =   0.0025641
        k(  441) = (   0.1723685   0.5563515  -0.5031647), wk =   0.0025641
        k(  442) = (   0.2330784   0.5563515  -0.3354432), wk =   0.0025641
        k(  443) = (   0.2937883   0.5563515  -0.1677216), wk =   0.0025641
        k(  444) = (   0.3544983   0.7418019   0.0000000), wk =   0.0025641
        k(  445) = (   0.4152082   0.7418019   0.1677216), wk =   0.0025641
        k(  446) = (   0.4759181   0.7418019   0.3354432), wk =   0.0025641
        k(  447) = (   0.5366280   0.7418019   0.5031647), wk =   0.0025641
        k(  448) = (   0.5973380   0.7418019   0.6708863), wk =   0.0025641
        k(  449) = (   0.6580479   0.7418019   0.8386079), wk =   0.0025641
        k(  450) = (   0.7187578   0.7418019   1.0063295), wk =   0.0025641
        k(  451) = (  -0.0097613   0.7418019  -1.0063295), wk =   0.0025641
        k(  452) = (   0.0509486   0.7418019  -0.8386079), wk =   0.0025641
        k(  453) = (   0.1116586   0.7418019  -0.6708863), wk =   0.0025641
        k(  454) = (   0.1723685   0.7418019  -0.5031647), wk =   0.0025641
        k(  455) = (   0.2330784   0.7418019  -0.3354432), wk =   0.0025641
        k(  456) = (   0.2937883   0.7418019  -0.1677216), wk =   0.0025641
        k(  457) = (   0.3544983   0.9272524   0.0000000), wk =   0.0025641
        k(  458) = (   0.4152082   0.9272524   0.1677216), wk =   0.0025641
        k(  459) = (   0.4759181   0.9272524   0.3354432), wk =   0.0025641
        k(  460) = (   0.5366280   0.9272524   0.5031647), wk =   0.0025641
        k(  461) = (   0.5973380   0.9272524   0.6708863), wk =   0.0025641
        k(  462) = (   0.6580479   0.9272524   0.8386079), wk =   0.0025641
        k(  463) = (   0.7187578   0.9272524   1.0063295), wk =   0.0025641
        k(  464) = (  -0.0097613   0.9272524  -1.0063295), wk =   0.0025641
        k(  465) = (   0.0509486   0.9272524  -0.8386079), wk =   0.0025641
        k(  466) = (   0.1116586   0.9272524  -0.6708863), wk =   0.0025641
        k(  467) = (   0.1723685   0.9272524  -0.5031647), wk =   0.0025641
        k(  468) = (   0.2330784   0.9272524  -0.3354432), wk =   0.0025641
        k(  469) = (   0.2937883   0.9272524  -0.1677216), wk =   0.0025641
        k(  470) = (   0.3544983   1.1127029   0.0000000), wk =   0.0025641
        k(  471) = (   0.4152082   1.1127029   0.1677216), wk =   0.0025641
        k(  472) = (   0.4759181   1.1127029   0.3354432), wk =   0.0025641
        k(  473) = (   0.5366280   1.1127029   0.5031647), wk =   0.0025641
        k(  474) = (   0.5973380   1.1127029   0.6708863), wk =   0.0025641
        k(  475) = (   0.6580479   1.1127029   0.8386079), wk =   0.0025641
        k(  476) = (   0.7187578   1.1127029   1.0063295), wk =   0.0025641
        k(  477) = (  -0.0097613   1.1127029  -1.0063295), wk =   0.0025641
        k(  478) = (   0.0509486   1.1127029  -0.8386079), wk =   0.0025641
        k(  479) = (   0.1116586   1.1127029  -0.6708863), wk =   0.0025641
        k(  480) = (   0.1723685   1.1127029  -0.5031647), wk =   0.0025641
        k(  481) = (   0.2330784   1.1127029  -0.3354432), wk =   0.0025641
        k(  482) = (   0.2937883   1.1127029  -0.1677216), wk =   0.0025641
        k(  483) = (   0.3544983   1.2981534   0.0000000), wk =   0.0025641
        k(  484) = (   0.4152082   1.2981534   0.1677216), wk =   0.0025641
        k(  485) = (   0.4759181   1.2981534   0.3354432), wk =   0.0025641
        k(  486) = (   0.5366280   1.2981534   0.5031647), wk =   0.0025641
        k(  487) = (   0.5973380   1.2981534   0.6708863), wk =   0.0025641
        k(  488) = (   0.6580479   1.2981534   0.8386079), wk =   0.0025641
        k(  489) = (   0.7187578   1.2981534   1.0063295), wk =   0.0025641
        k(  490) = (  -0.0097613   1.2981534  -1.0063295), wk =   0.0025641
        k(  491) = (   0.0509486   1.2981534  -0.8386079), wk =   0.0025641
        k(  492) = (   0.1116586   1.2981534  -0.6708863), wk =   0.0025641
        k(  493) = (   0.1723685   1.2981534  -0.5031647), wk =   0.0025641
        k(  494) = (   0.2330784   1.2981534  -0.3354432), wk =   0.0025641
        k(  495) = (   0.2937883   1.2981534  -0.1677216), wk =   0.0025641
        k(  496) = (   0.3544983   1.4836039   0.0000000), wk =   0.0025641
        k(  497) = (   0.4152082   1.4836039   0.1677216), wk =   0.0025641
        k(  498) = (   0.4759181   1.4836039   0.3354432), wk =   0.0025641
        k(  499) = (   0.5366280   1.4836039   0.5031647), wk =   0.0025641
        k(  500) = (   0.5973380   1.4836039   0.6708863), wk =   0.0025641
        k(  501) = (   0.6580479   1.4836039   0.8386079), wk =   0.0025641
        k(  502) = (   0.7187578   1.4836039   1.0063295), wk =   0.0025641
        k(  503) = (  -0.0097613   1.4836039  -1.0063295), wk =   0.0025641
        k(  504) = (   0.0509486   1.4836039  -0.8386079), wk =   0.0025641
        k(  505) = (   0.1116586   1.4836039  -0.6708863), wk =   0.0025641
        k(  506) = (   0.1723685   1.4836039  -0.5031647), wk =   0.0025641
        k(  507) = (   0.2330784   1.4836039  -0.3354432), wk =   0.0025641
        k(  508) = (   0.2937883   1.4836039  -0.1677216), wk =   0.0025641
        k(  509) = (   0.3544983   1.6690544   0.0000000), wk =   0.0025641
        k(  510) = (   0.4152082   1.6690544   0.1677216), wk =   0.0025641
        k(  511) = (   0.4759181   1.6690544   0.3354432), wk =   0.0025641
        k(  512) = (   0.5366280   1.6690544   0.5031647), wk =   0.0025641
        k(  513) = (   0.5973380   1.6690544   0.6708863), wk =   0.0025641
        k(  514) = (   0.6580479   1.6690544   0.8386079), wk =   0.0025641
        k(  515) = (   0.7187578   1.6690544   1.0063295), wk =   0.0025641
        k(  516) = (  -0.0097613   1.6690544  -1.0063295), wk =   0.0025641
        k(  517) = (   0.0509486   1.6690544  -0.8386079), wk =   0.0025641
        k(  518) = (   0.1116586   1.6690544  -0.6708863), wk =   0.0025641
        k(  519) = (   0.1723685   1.6690544  -0.5031647), wk =   0.0025641
        k(  520) = (   0.2330784   1.6690544  -0.3354432), wk =   0.0025641
        k(  521) = (   0.2937883   1.6690544  -0.1677216), wk =   0.0025641
        k(  522) = (   0.3544983  -1.8545049   0.0000000), wk =   0.0025641
        k(  523) = (   0.4152082  -1.8545049   0.1677216), wk =   0.0025641
        k(  524) = (   0.4759181  -1.8545049   0.3354432), wk =   0.0025641
        k(  525) = (   0.5366280  -1.8545049   0.5031647), wk =   0.0025641
        k(  526) = (   0.5973380  -1.8545049   0.6708863), wk =   0.0025641
        k(  527) = (   0.6580479  -1.8545049   0.8386079), wk =   0.0025641
        k(  528) = (   0.7187578  -1.8545049   1.0063295), wk =   0.0025641
        k(  529) = (  -0.0097613  -1.8545049  -1.0063295), wk =   0.0025641
        k(  530) = (   0.0509486  -1.8545049  -0.8386079), wk =   0.0025641
        k(  531) = (   0.1116586  -1.8545049  -0.6708863), wk =   0.0025641
        k(  532) = (   0.1723685  -1.8545049  -0.5031647), wk =   0.0025641
        k(  533) = (   0.2330784  -1.8545049  -0.3354432), wk =   0.0025641
        k(  534) = (   0.2937883  -1.8545049  -0.1677216), wk =   0.0025641
        k(  535) = (   0.3544983  -1.6690544   0.0000000), wk =   0.0025641
        k(  536) = (   0.4152082  -1.6690544   0.1677216), wk =   0.0025641
        k(  537) = (   0.4759181  -1.6690544   0.3354432), wk =   0.0025641
        k(  538) = (   0.5366280  -1.6690544   0.5031647), wk =   0.0025641
        k(  539) = (   0.5973380  -1.6690544   0.6708863), wk =   0.0025641
        k(  540) = (   0.6580479  -1.6690544   0.8386079), wk =   0.0025641
        k(  541) = (   0.7187578  -1.6690544   1.0063295), wk =   0.0025641
        k(  542) = (  -0.0097613  -1.6690544  -1.0063295), wk =   0.0025641
        k(  543) = (   0.0509486  -1.6690544  -0.8386079), wk =   0.0025641
        k(  544) = (   0.1116586  -1.6690544  -0.6708863), wk =   0.0025641
        k(  545) = (   0.1723685  -1.6690544  -0.5031647), wk =   0.0025641
        k(  546) = (   0.2330784  -1.6690544  -0.3354432), wk =   0.0025641
        k(  547) = (   0.2937883  -1.6690544  -0.1677216), wk =   0.0025641
        k(  548) = (   0.3544983  -1.4836039   0.0000000), wk =   0.0025641
        k(  549) = (   0.4152082  -1.4836039   0.1677216), wk =   0.0025641
        k(  550) = (   0.4759181  -1.4836039   0.3354432), wk =   0.0025641
        k(  551) = (   0.5366280  -1.4836039   0.5031647), wk =   0.0025641
        k(  552) = (   0.5973380  -1.4836039   0.6708863), wk =   0.0025641
        k(  553) = (   0.6580479  -1.4836039   0.8386079), wk =   0.0025641
        k(  554) = (   0.7187578  -1.4836039   1.0063295), wk =   0.0025641
        k(  555) = (  -0.0097613  -1.4836039  -1.0063295), wk =   0.0025641
        k(  556) = (   0.0509486  -1.4836039  -0.8386079), wk =   0.0025641
        k(  557) = (   0.1116586  -1.4836039  -0.6708863), wk =   0.0025641
        k(  558) = (   0.1723685  -1.4836039  -0.5031647), wk =   0.0025641
        k(  559) = (   0.2330784  -1.4836039  -0.3354432), wk =   0.0025641
        k(  560) = (   0.2937883  -1.4836039  -0.1677216), wk =   0.0025641
        k(  561) = (   0.3544983  -1.2981534   0.0000000), wk =   0.0025641
        k(  562) = (   0.4152082  -1.2981534   0.1677216), wk =   0.0025641
        k(  563) = (   0.4759181  -1.2981534   0.3354432), wk =   0.0025641
        k(  564) = (   0.5366280  -1.2981534   0.5031647), wk =   0.0025641
        k(  565) = (   0.5973380  -1.2981534   0.6708863), wk =   0.0025641
        k(  566) = (   0.6580479  -1.2981534   0.8386079), wk =   0.0025641
        k(  567) = (   0.7187578  -1.2981534   1.0063295), wk =   0.0025641
        k(  568) = (  -0.0097613  -1.2981534  -1.0063295), wk =   0.0025641
        k(  569) = (   0.0509486  -1.2981534  -0.8386079), wk =   0.0025641
        k(  570) = (   0.1116586  -1.2981534  -0.6708863), wk =   0.0025641
        k(  571) = (   0.1723685  -1.2981534  -0.5031647), wk =   0.0025641
        k(  572) = (   0.2330784  -1.2981534  -0.3354432), wk =   0.0025641
        k(  573) = (   0.2937883  -1.2981534  -0.1677216), wk =   0.0025641
        k(  574) = (   0.3544983  -1.1127029   0.0000000), wk =   0.0025641
        k(  575) = (   0.4152082  -1.1127029   0.1677216), wk =   0.0025641
        k(  576) = (   0.4759181  -1.1127029   0.3354432), wk =   0.0025641
        k(  577) = (   0.5366280  -1.1127029   0.5031647), wk =   0.0025641
        k(  578) = (   0.5973380  -1.1127029   0.6708863), wk =   0.0025641
        k(  579) = (   0.6580479  -1.1127029   0.8386079), wk =   0.0025641
        k(  580) = (   0.7187578  -1.1127029   1.0063295), wk =   0.0025641
        k(  581) = (  -0.0097613  -1.1127029  -1.0063295), wk =   0.0025641
        k(  582) = (   0.0509486  -1.1127029  -0.8386079), wk =   0.0025641
        k(  583) = (   0.1116586  -1.1127029  -0.6708863), wk =   0.0025641
        k(  584) = (   0.1723685  -1.1127029  -0.5031647), wk =   0.0025641
        k(  585) = (   0.2330784  -1.1127029  -0.3354432), wk =   0.0025641
        k(  586) = (   0.2937883  -1.1127029  -0.1677216), wk =   0.0025641
        k(  587) = (   0.3544983  -0.9272524   0.0000000), wk =   0.0025641
        k(  588) = (   0.4152082  -0.9272524   0.1677216), wk =   0.0025641
        k(  589) = (   0.4759181  -0.9272524   0.3354432), wk =   0.0025641
        k(  590) = (   0.5366280  -0.9272524   0.5031647), wk =   0.0025641
        k(  591) = (   0.5973380  -0.9272524   0.6708863), wk =   0.0025641
        k(  592) = (   0.6580479  -0.9272524   0.8386079), wk =   0.0025641
        k(  593) = (   0.7187578  -0.9272524   1.0063295), wk =   0.0025641
        k(  594) = (  -0.0097613  -0.9272524  -1.0063295), wk =   0.0025641
        k(  595) = (   0.0509486  -0.9272524  -0.8386079), wk =   0.0025641
        k(  596) = (   0.1116586  -0.9272524  -0.6708863), wk =   0.0025641
        k(  597) = (   0.1723685  -0.9272524  -0.5031647), wk =   0.0025641
        k(  598) = (   0.2330784  -0.9272524  -0.3354432), wk =   0.0025641
        k(  599) = (   0.2937883  -0.9272524  -0.1677216), wk =   0.0025641
        k(  600) = (   0.3544983  -0.7418019   0.0000000), wk =   0.0025641
        k(  601) = (   0.4152082  -0.7418019   0.1677216), wk =   0.0025641
        k(  602) = (   0.4759181  -0.7418019   0.3354432), wk =   0.0025641
        k(  603) = (   0.5366280  -0.7418019   0.5031647), wk =   0.0025641
        k(  604) = (   0.5973380  -0.7418019   0.6708863), wk =   0.0025641
        k(  605) = (   0.6580479  -0.7418019   0.8386079), wk =   0.0025641
        k(  606) = (   0.7187578  -0.7418019   1.0063295), wk =   0.0025641
        k(  607) = (  -0.0097613  -0.7418019  -1.0063295), wk =   0.0025641
        k(  608) = (   0.0509486  -0.7418019  -0.8386079), wk =   0.0025641
        k(  609) = (   0.1116586  -0.7418019  -0.6708863), wk =   0.0025641
        k(  610) = (   0.1723685  -0.7418019  -0.5031647), wk =   0.0025641
        k(  611) = (   0.2330784  -0.7418019  -0.3354432), wk =   0.0025641
        k(  612) = (   0.2937883  -0.7418019  -0.1677216), wk =   0.0025641
        k(  613) = (   0.3544983  -0.5563515   0.0000000), wk =   0.0025641
        k(  614) = (   0.4152082  -0.5563515   0.1677216), wk =   0.0025641
        k(  615) = (   0.4759181  -0.5563515   0.3354432), wk =   0.0025641
        k(  616) = (   0.5366280  -0.5563515   0.5031647), wk =   0.0025641
        k(  617) = (   0.5973380  -0.5563515   0.6708863), wk =   0.0025641
        k(  618) = (   0.6580479  -0.5563515   0.8386079), wk =   0.0025641
        k(  619) = (   0.7187578  -0.5563515   1.0063295), wk =   0.0025641
        k(  620) = (  -0.0097613  -0.5563515  -1.0063295), wk =   0.0025641
        k(  621) = (   0.0509486  -0.5563515  -0.8386079), wk =   0.0025641
        k(  622) = (   0.1116586  -0.5563515  -0.6708863), wk =   0.0025641
        k(  623) = (   0.1723685  -0.5563515  -0.5031647), wk =   0.0025641
        k(  624) = (   0.2330784  -0.5563515  -0.3354432), wk =   0.0025641
        k(  625) = (   0.2937883  -0.5563515  -0.1677216), wk =   0.0025641
        k(  626) = (   0.3544983  -0.3709010   0.0000000), wk =   0.0025641
        k(  627) = (   0.4152082  -0.3709010   0.1677216), wk =   0.0025641
        k(  628) = (   0.4759181  -0.3709010   0.3354432), wk =   0.0025641
        k(  629) = (   0.5366280  -0.3709010   0.5031647), wk =   0.0025641
        k(  630) = (   0.5973380  -0.3709010   0.6708863), wk =   0.0025641
        k(  631) = (   0.6580479  -0.3709010   0.8386079), wk =   0.0025641
        k(  632) = (   0.7187578  -0.3709010   1.0063295), wk =   0.0025641
        k(  633) = (  -0.0097613  -0.3709010  -1.0063295), wk =   0.0025641
        k(  634) = (   0.0509486  -0.3709010  -0.8386079), wk =   0.0025641
        k(  635) = (   0.1116586  -0.3709010  -0.6708863), wk =   0.0025641
        k(  636) = (   0.1723685  -0.3709010  -0.5031647), wk =   0.0025641
        k(  637) = (   0.2330784  -0.3709010  -0.3354432), wk =   0.0025641
        k(  638) = (   0.2937883  -0.3709010  -0.1677216), wk =   0.0025641
        k(  639) = (   0.3544983  -0.1854505   0.0000000), wk =   0.0025641
        k(  640) = (   0.4152082  -0.1854505   0.1677216), wk =   0.0025641
        k(  641) = (   0.4759181  -0.1854505   0.3354432), wk =   0.0025641
        k(  642) = (   0.5366280  -0.1854505   0.5031647), wk =   0.0025641
        k(  643) = (   0.5973380  -0.1854505   0.6708863), wk =   0.0025641
        k(  644) = (   0.6580479  -0.1854505   0.8386079), wk =   0.0025641
        k(  645) = (   0.7187578  -0.1854505   1.0063295), wk =   0.0025641
        k(  646) = (  -0.0097613  -0.1854505  -1.0063295), wk =   0.0025641
        k(  647) = (   0.0509486  -0.1854505  -0.8386079), wk =   0.0025641
        k(  648) = (   0.1116586  -0.1854505  -0.6708863), wk =   0.0025641
        k(  649) = (   0.1723685  -0.1854505  -0.5031647), wk =   0.0025641
        k(  650) = (   0.2330784  -0.1854505  -0.3354432), wk =   0.0025641
        k(  651) = (   0.2937883  -0.1854505  -0.1677216), wk =   0.0025641
        k(  652) = (  -0.5317474   0.0000000   0.0000000), wk =   0.0012821
        k(  653) = (  -0.4710375   0.0000000   0.1677216), wk =   0.0025641
        k(  654) = (  -0.4103275   0.0000000   0.3354432), wk =   0.0025641
        k(  655) = (  -0.3496176   0.0000000   0.5031647), wk =   0.0025641
        k(  656) = (  -0.2889077   0.0000000   0.6708863), wk =   0.0025641
        k(  657) = (  -0.2281978   0.0000000   0.8386079), wk =   0.0025641
        k(  658) = (  -0.1674878   0.0000000   1.0063295), wk =   0.0025641
        k(  659) = (  -0.5317474   0.1854505   0.0000000), wk =   0.0025641
        k(  660) = (  -0.4710375   0.1854505   0.1677216), wk =   0.0025641
        k(  661) = (  -0.4103275   0.1854505   0.3354432), wk =   0.0025641
        k(  662) = (  -0.3496176   0.1854505   0.5031647), wk =   0.0025641
        k(  663) = (  -0.2889077   0.1854505   0.6708863), wk =   0.0025641
        k(  664) = (  -0.2281978   0.1854505   0.8386079), wk =   0.0025641
        k(  665) = (  -0.1674878   0.1854505   1.0063295), wk =   0.0025641
        k(  666) = (  -0.8960070   0.1854505  -1.0063295), wk =   0.0025641
        k(  667) = (  -0.8352970   0.1854505  -0.8386079), wk =   0.0025641
        k(  668) = (  -0.7745871   0.1854505  -0.6708863), wk =   0.0025641
        k(  669) = (  -0.7138772   0.1854505  -0.5031647), wk =   0.0025641
        k(  670) = (  -0.6531673   0.1854505  -0.3354432), wk =   0.0025641
        k(  671) = (  -0.5924573   0.1854505  -0.1677216), wk =   0.0025641
        k(  672) = (  -0.5317474   0.3709010   0.0000000), wk =   0.0025641
        k(  673) = (  -0.4710375   0.3709010   0.1677216), wk =   0.0025641
        k(  674) = (  -0.4103275   0.3709010   0.3354432), wk =   0.0025641
        k(  675) = (  -0.3496176   0.3709010   0.5031647), wk =   0.0025641
        k(  676) = (  -0.2889077   0.3709010   0.6708863), wk =   0.0025641
        k(  677) = (  -0.2281978   0.3709010   0.8386079), wk =   0.0025641
        k(  678) = (  -0.1674878   0.3709010   1.0063295), wk =   0.0025641
        k(  679) = (  -0.8960070   0.3709010  -1.0063295), wk =   0.0025641
        k(  680) = (  -0.8352970   0.3709010  -0.8386079), wk =   0.0025641
        k(  681) = (  -0.7745871   0.3709010  -0.6708863), wk =   0.0025641
        k(  682) = (  -0.7138772   0.3709010  -0.5031647), wk =   0.0025641
        k(  683) = (  -0.6531673   0.3709010  -0.3354432), wk =   0.0025641
        k(  684) = (  -0.5924573   0.3709010  -0.1677216), wk =   0.0025641
        k(  685) = (  -0.5317474   0.5563515   0.0000000), wk =   0.0025641
        k(  686) = (  -0.4710375   0.5563515   0.1677216), wk =   0.0025641
        k(  687) = (  -0.4103275   0.5563515   0.3354432), wk =   0.0025641
        k(  688) = (  -0.3496176   0.5563515   0.5031647), wk =   0.0025641
        k(  689) = (  -0.2889077   0.5563515   0.6708863), wk =   0.0025641
        k(  690) = (  -0.2281978   0.5563515   0.8386079), wk =   0.0025641
        k(  691) = (  -0.1674878   0.5563515   1.0063295), wk =   0.0025641
        k(  692) = (  -0.8960070   0.5563515  -1.0063295), wk =   0.0025641
        k(  693) = (  -0.8352970   0.5563515  -0.8386079), wk =   0.0025641
        k(  694) = (  -0.7745871   0.5563515  -0.6708863), wk =   0.0025641
        k(  695) = (  -0.7138772   0.5563515  -0.5031647), wk =   0.0025641
        k(  696) = (  -0.6531673   0.5563515  -0.3354432), wk =   0.0025641
        k(  697) = (  -0.5924573   0.5563515  -0.1677216), wk =   0.0025641
        k(  698) = (  -0.5317474   0.7418019   0.0000000), wk =   0.0025641
        k(  699) = (  -0.4710375   0.7418019   0.1677216), wk =   0.0025641
        k(  700) = (  -0.4103275   0.7418019   0.3354432), wk =   0.0025641
        k(  701) = (  -0.3496176   0.7418019   0.5031647), wk =   0.0025641
        k(  702) = (  -0.2889077   0.7418019   0.6708863), wk =   0.0025641
        k(  703) = (  -0.2281978   0.7418019   0.8386079), wk =   0.0025641
        k(  704) = (  -0.1674878   0.7418019   1.0063295), wk =   0.0025641
        k(  705) = (  -0.8960070   0.7418019  -1.0063295), wk =   0.0025641
        k(  706) = (  -0.8352970   0.7418019  -0.8386079), wk =   0.0025641
        k(  707) = (  -0.7745871   0.7418019  -0.6708863), wk =   0.0025641
        k(  708) = (  -0.7138772   0.7418019  -0.5031647), wk =   0.0025641
        k(  709) = (  -0.6531673   0.7418019  -0.3354432), wk =   0.0025641
        k(  710) = (  -0.5924573   0.7418019  -0.1677216), wk =   0.0025641
        k(  711) = (  -0.5317474   0.9272524   0.0000000), wk =   0.0025641
        k(  712) = (  -0.4710375   0.9272524   0.1677216), wk =   0.0025641
        k(  713) = (  -0.4103275   0.9272524   0.3354432), wk =   0.0025641
        k(  714) = (  -0.3496176   0.9272524   0.5031647), wk =   0.0025641
        k(  715) = (  -0.2889077   0.9272524   0.6708863), wk =   0.0025641
        k(  716) = (  -0.2281978   0.9272524   0.8386079), wk =   0.0025641
        k(  717) = (  -0.1674878   0.9272524   1.0063295), wk =   0.0025641
        k(  718) = (  -0.8960070   0.9272524  -1.0063295), wk =   0.0025641
        k(  719) = (  -0.8352970   0.9272524  -0.8386079), wk =   0.0025641
        k(  720) = (  -0.7745871   0.9272524  -0.6708863), wk =   0.0025641
        k(  721) = (  -0.7138772   0.9272524  -0.5031647), wk =   0.0025641
        k(  722) = (  -0.6531673   0.9272524  -0.3354432), wk =   0.0025641
        k(  723) = (  -0.5924573   0.9272524  -0.1677216), wk =   0.0025641
        k(  724) = (  -0.5317474   1.1127029   0.0000000), wk =   0.0025641
        k(  725) = (  -0.4710375   1.1127029   0.1677216), wk =   0.0025641
        k(  726) = (  -0.4103275   1.1127029   0.3354432), wk =   0.0025641
        k(  727) = (  -0.3496176   1.1127029   0.5031647), wk =   0.0025641
        k(  728) = (  -0.2889077   1.1127029   0.6708863), wk =   0.0025641
        k(  729) = (  -0.2281978   1.1127029   0.8386079), wk =   0.0025641
        k(  730) = (  -0.1674878   1.1127029   1.0063295), wk =   0.0025641
        k(  731) = (  -0.8960070   1.1127029  -1.0063295), wk =   0.0025641
        k(  732) = (  -0.8352970   1.1127029  -0.8386079), wk =   0.0025641
        k(  733) = (  -0.7745871   1.1127029  -0.6708863), wk =   0.0025641
        k(  734) = (  -0.7138772   1.1127029  -0.5031647), wk =   0.0025641
        k(  735) = (  -0.6531673   1.1127029  -0.3354432), wk =   0.0025641
        k(  736) = (  -0.5924573   1.1127029  -0.1677216), wk =   0.0025641
        k(  737) = (  -0.5317474   1.2981534   0.0000000), wk =   0.0025641
        k(  738) = (  -0.4710375   1.2981534   0.1677216), wk =   0.0025641
        k(  739) = (  -0.4103275   1.2981534   0.3354432), wk =   0.0025641
        k(  740) = (  -0.3496176   1.2981534   0.5031647), wk =   0.0025641
        k(  741) = (  -0.2889077   1.2981534   0.6708863), wk =   0.0025641
        k(  742) = (  -0.2281978   1.2981534   0.8386079), wk =   0.0025641
        k(  743) = (  -0.1674878   1.2981534   1.0063295), wk =   0.0025641
        k(  744) = (  -0.8960070   1.2981534  -1.0063295), wk =   0.0025641
        k(  745) = (  -0.8352970   1.2981534  -0.8386079), wk =   0.0025641
        k(  746) = (  -0.7745871   1.2981534  -0.6708863), wk =   0.0025641
        k(  747) = (  -0.7138772   1.2981534  -0.5031647), wk =   0.0025641
        k(  748) = (  -0.6531673   1.2981534  -0.3354432), wk =   0.0025641
        k(  749) = (  -0.5924573   1.2981534  -0.1677216), wk =   0.0025641
        k(  750) = (  -0.5317474   1.4836039   0.0000000), wk =   0.0025641
        k(  751) = (  -0.4710375   1.4836039   0.1677216), wk =   0.0025641
        k(  752) = (  -0.4103275   1.4836039   0.3354432), wk =   0.0025641
        k(  753) = (  -0.3496176   1.4836039   0.5031647), wk =   0.0025641
        k(  754) = (  -0.2889077   1.4836039   0.6708863), wk =   0.0025641
        k(  755) = (  -0.2281978   1.4836039   0.8386079), wk =   0.0025641
        k(  756) = (  -0.1674878   1.4836039   1.0063295), wk =   0.0025641
        k(  757) = (  -0.8960070   1.4836039  -1.0063295), wk =   0.0025641
        k(  758) = (  -0.8352970   1.4836039  -0.8386079), wk =   0.0025641
        k(  759) = (  -0.7745871   1.4836039  -0.6708863), wk =   0.0025641
        k(  760) = (  -0.7138772   1.4836039  -0.5031647), wk =   0.0025641
        k(  761) = (  -0.6531673   1.4836039  -0.3354432), wk =   0.0025641
        k(  762) = (  -0.5924573   1.4836039  -0.1677216), wk =   0.0025641
        k(  763) = (  -0.5317474   1.6690544   0.0000000), wk =   0.0025641
        k(  764) = (  -0.4710375   1.6690544   0.1677216), wk =   0.0025641
        k(  765) = (  -0.4103275   1.6690544   0.3354432), wk =   0.0025641
        k(  766) = (  -0.3496176   1.6690544   0.5031647), wk =   0.0025641
        k(  767) = (  -0.2889077   1.6690544   0.6708863), wk =   0.0025641
        k(  768) = (  -0.2281978   1.6690544   0.8386079), wk =   0.0025641
        k(  769) = (  -0.1674878   1.6690544   1.0063295), wk =   0.0025641
        k(  770) = (  -0.8960070   1.6690544  -1.0063295), wk =   0.0025641
        k(  771) = (  -0.8352970   1.6690544  -0.8386079), wk =   0.0025641
        k(  772) = (  -0.7745871   1.6690544  -0.6708863), wk =   0.0025641
        k(  773) = (  -0.7138772   1.6690544  -0.5031647), wk =   0.0025641
        k(  774) = (  -0.6531673   1.6690544  -0.3354432), wk =   0.0025641
        k(  775) = (  -0.5924573   1.6690544  -0.1677216), wk =   0.0025641
        k(  776) = (  -0.5317474  -1.8545049   0.0000000), wk =   0.0012821
        k(  777) = (  -0.4710375  -1.8545049   0.1677216), wk =   0.0025641
        k(  778) = (  -0.4103275  -1.8545049   0.3354432), wk =   0.0025641
        k(  779) = (  -0.3496176  -1.8545049   0.5031647), wk =   0.0025641
        k(  780) = (  -0.2889077  -1.8545049   0.6708863), wk =   0.0025641
        k(  781) = (  -0.2281978  -1.8545049   0.8386079), wk =   0.0025641
        k(  782) = (  -0.1674878  -1.8545049   1.0063295), wk =   0.0025641

                       cryst. coord.
        k(    1) = (   0.0000000   0.0000000   0.0000000), wk =   0.0012821
        k(    2) = (  -0.0000000   0.0000000   0.0769231), wk =   0.0025641
        k(    3) = (  -0.0000000   0.0000000   0.1538462), wk =   0.0025641
        k(    4) = (  -0.0000000   0.0000000   0.2307692), wk =   0.0025641
        k(    5) = (  -0.0000000   0.0000000   0.3076923), wk =   0.0025641
        k(    6) = (   0.0000000   0.0000000   0.3846154), wk =   0.0025641
        k(    7) = (  -0.0000000   0.0000000   0.4615385), wk =   0.0025641
        k(    8) = (   0.0000000   0.0500000   0.0000000), wk =   0.0025641
        k(    9) = (  -0.0000000   0.0500000   0.0769231), wk =   0.0025641
        k(   10) = (  -0.0000000   0.0500000   0.1538462), wk =   0.0025641
        k(   11) = (  -0.0000000   0.0500000   0.2307692), wk =   0.0025641
        k(   12) = (  -0.0000000   0.0500000   0.3076923), wk =   0.0025641
        k(   13) = (   0.0000000   0.0500000   0.3846154), wk =   0.0025641
        k(   14) = (  -0.0000000   0.0500000   0.4615385), wk =   0.0025641
        k(   15) = (   0.0000000   0.0500000  -0.4615385), wk =   0.0025641
        k(   16) = (   0.0000000   0.0500000  -0.3846154), wk =   0.0025641
        k(   17) = (   0.0000000   0.0500000  -0.3076923), wk =   0.0025641
        k(   18) = (   0.0000000   0.0500000  -0.2307692), wk =   0.0025641
        k(   19) = (   0.0000000   0.0500000  -0.1538462), wk =   0.0025641
        k(   20) = (   0.0000000   0.0500000  -0.0769231), wk =   0.0025641
        k(   21) = (   0.0000000   0.1000000   0.0000000), wk =   0.0025641
        k(   22) = (  -0.0000000   0.1000000   0.0769231), wk =   0.0025641
        k(   23) = (  -0.0000000   0.1000000   0.1538462), wk =   0.0025641
        k(   24) = (  -0.0000000   0.1000000   0.2307692), wk =   0.0025641
        k(   25) = (  -0.0000000   0.1000000   0.3076923), wk =   0.0025641
        k(   26) = (   0.0000000   0.1000000   0.3846154), wk =   0.0025641
        k(   27) = (  -0.0000000   0.1000000   0.4615385), wk =   0.0025641
        k(   28) = (   0.0000000   0.1000000  -0.4615385), wk =   0.0025641
        k(   29) = (   0.0000000   0.1000000  -0.3846154), wk =   0.0025641
        k(   30) = (   0.0000000   0.1000000  -0.3076923), wk =   0.0025641
        k(   31) = (   0.0000000   0.1000000  -0.2307692), wk =   0.0025641
        k(   32) = (   0.0000000   0.1000000  -0.1538462), wk =   0.0025641
        k(   33) = (   0.0000000   0.1000000  -0.0769231), wk =   0.0025641
        k(   34) = (   0.0000000   0.1500000   0.0000000), wk =   0.0025641
        k(   35) = (  -0.0000000   0.1500000   0.0769231), wk =   0.0025641
        k(   36) = (  -0.0000000   0.1500000   0.1538462), wk =   0.0025641
        k(   37) = (  -0.0000000   0.1500000   0.2307692), wk =   0.0025641
        k(   38) = (  -0.0000000   0.1500000   0.3076923), wk =   0.0025641
        k(   39) = (   0.0000000   0.1500000   0.3846154), wk =   0.0025641
        k(   40) = (  -0.0000000   0.1500000   0.4615385), wk =   0.0025641
        k(   41) = (   0.0000000   0.1500000  -0.4615385), wk =   0.0025641
        k(   42) = (   0.0000000   0.1500000  -0.3846154), wk =   0.0025641
        k(   43) = (   0.0000000   0.1500000  -0.3076923), wk =   0.0025641
        k(   44) = (   0.0000000   0.1500000  -0.2307692), wk =   0.0025641
        k(   45) = (   0.0000000   0.1500000  -0.1538462), wk =   0.0025641
        k(   46) = (   0.0000000   0.1500000  -0.0769231), wk =   0.0025641
        k(   47) = (   0.0000000   0.2000000   0.0000000), wk =   0.0025641
        k(   48) = (  -0.0000000   0.2000000   0.0769231), wk =   0.0025641
        k(   49) = (  -0.0000000   0.2000000   0.1538462), wk =   0.0025641
        k(   50) = (  -0.0000000   0.2000000   0.2307692), wk =   0.0025641
        k(   51) = (  -0.0000000   0.2000000   0.3076923), wk =   0.0025641
        k(   52) = (   0.0000000   0.2000000   0.3846154), wk =   0.0025641
        k(   53) = (  -0.0000000   0.2000000   0.4615385), wk =   0.0025641
        k(   54) = (   0.0000000   0.2000000  -0.4615385), wk =   0.0025641
        k(   55) = (   0.0000000   0.2000000  -0.3846154), wk =   0.0025641
        k(   56) = (   0.0000000   0.2000000  -0.3076923), wk =   0.0025641
        k(   57) = (   0.0000000   0.2000000  -0.2307692), wk =   0.0025641
        k(   58) = (   0.0000000   0.2000000  -0.1538462), wk =   0.0025641
        k(   59) = (   0.0000000   0.2000000  -0.0769231), wk =   0.0025641
        k(   60) = (   0.0000000   0.2500000   0.0000000), wk =   0.0025641
        k(   61) = (  -0.0000000   0.2500000   0.0769231), wk =   0.0025641
        k(   62) = (  -0.0000000   0.2500000   0.1538462), wk =   0.0025641
        k(   63) = (  -0.0000000   0.2500000   0.2307692), wk =   0.0025641
        k(   64) = (  -0.0000000   0.2500000   0.3076923), wk =   0.0025641
        k(   65) = (   0.0000000   0.2500000   0.3846154), wk =   0.0025641
        k(   66) = (  -0.0000000   0.2500000   0.4615385), wk =   0.0025641
        k(   67) = (   0.0000000   0.2500000  -0.4615385), wk =   0.0025641
        k(   68) = (   0.0000000   0.2500000  -0.3846154), wk =   0.0025641
        k(   69) = (   0.0000000   0.2500000  -0.3076923), wk =   0.0025641
        k(   70) = (   0.0000000   0.2500000  -0.2307692), wk =   0.0025641
        k(   71) = (   0.0000000   0.2500000  -0.1538462), wk =   0.0025641
        k(   72) = (   0.0000000   0.2500000  -0.0769231), wk =   0.0025641
        k(   73) = (   0.0000000   0.3000000   0.0000000), wk =   0.0025641
        k(   74) = (  -0.0000000   0.3000000   0.0769231), wk =   0.0025641
        k(   75) = (  -0.0000000   0.3000000   0.1538462), wk =   0.0025641
        k(   76) = (  -0.0000000   0.3000000   0.2307692), wk =   0.0025641
        k(   77) = (  -0.0000000   0.3000000   0.3076923), wk =   0.0025641
        k(   78) = (   0.0000000   0.3000000   0.3846154), wk =   0.0025641
        k(   79) = (  -0.0000000   0.3000000   0.4615385), wk =   0.0025641
        k(   80) = (   0.0000000   0.3000000  -0.4615385), wk =   0.0025641
        k(   81) = (   0.0000000   0.3000000  -0.3846154), wk =   0.0025641
        k(   82) = (   0.0000000   0.3000000  -0.3076923), wk =   0.0025641
        k(   83) = (   0.0000000   0.3000000  -0.2307692), wk =   0.0025641
        k(   84) = (   0.0000000   0.3000000  -0.1538462), wk =   0.0025641
        k(   85) = (   0.0000000   0.3000000  -0.0769231), wk =   0.0025641
        k(   86) = (   0.0000000   0.3500000   0.0000000), wk =   0.0025641
        k(   87) = (  -0.0000000   0.3500000   0.0769231), wk =   0.0025641
        k(   88) = (  -0.0000000   0.3500000   0.1538462), wk =   0.0025641
        k(   89) = (  -0.0000000   0.3500000   0.2307692), wk =   0.0025641
        k(   90) = (  -0.0000000   0.3500000   0.3076923), wk =   0.0025641
        k(   91) = (   0.0000000   0.3500000   0.3846154), wk =   0.0025641
        k(   92) = (  -0.0000000   0.3500000   0.4615385), wk =   0.0025641
        k(   93) = (   0.0000000   0.3500000  -0.4615385), wk =   0.0025641
        k(   94) = (   0.0000000   0.3500000  -0.3846154), wk =   0.0025641
        k(   95) = (   0.0000000   0.3500000  -0.3076923), wk =   0.0025641
        k(   96) = (   0.0000000   0.3500000  -0.2307692), wk =   0.0025641
        k(   97) = (   0.0000000   0.3500000  -0.1538462), wk =   0.0025641
        k(   98) = (   0.0000000   0.3500000  -0.0769231), wk =   0.0025641
        k(   99) = (   0.0000000   0.4000000   0.0000000), wk =   0.0025641
        k(  100) = (  -0.0000000   0.4000000   0.0769231), wk =   0.0025641
        k(  101) = (  -0.0000000   0.4000000   0.1538462), wk =   0.0025641
        k(  102) = (  -0.0000000   0.4000000   0.2307692), wk =   0.0025641
        k(  103) = (  -0.0000000   0.4000000   0.3076923), wk =   0.0025641
        k(  104) = (   0.0000000   0.4000000   0.3846154), wk =   0.0025641
        k(  105) = (  -0.0000000   0.4000000   0.4615385), wk =   0.0025641
        k(  106) = (   0.0000000   0.4000000  -0.4615385), wk =   0.0025641
        k(  107) = (   0.0000000   0.4000000  -0.3846154), wk =   0.0025641
        k(  108) = (   0.0000000   0.4000000  -0.3076923), wk =   0.0025641
        k(  109) = (   0.0000000   0.4000000  -0.2307692), wk =   0.0025641
        k(  110) = (   0.0000000   0.4000000  -0.1538462), wk =   0.0025641
        k(  111) = (   0.0000000   0.4000000  -0.0769231), wk =   0.0025641
        k(  112) = (   0.0000000   0.4500000   0.0000000), wk =   0.0025641
        k(  113) = (  -0.0000000   0.4500000   0.0769231), wk =   0.0025641
        k(  114) = (  -0.0000000   0.4500000   0.1538462), wk =   0.0025641
        k(  115) = (  -0.0000000   0.4500000   0.2307692), wk =   0.0025641
        k(  116) = (  -0.0000000   0.4500000   0.3076923), wk =   0.0025641
        k(  117) = (   0.0000000   0.4500000   0.3846154), wk =   0.0025641
        k(  118) = (  -0.0000000   0.4500000   0.4615385), wk =   0.0025641
        k(  119) = (   0.0000000   0.4500000  -0.4615385), wk =   0.0025641
        k(  120) = (   0.0000000   0.4500000  -0.3846154), wk =   0.0025641
        k(  121) = (   0.0000000   0.4500000  -0.3076923), wk =   0.0025641
        k(  122) = (   0.0000000   0.4500000  -0.2307692), wk =   0.0025641
        k(  123) = (   0.0000000   0.4500000  -0.1538462), wk =   0.0025641
        k(  124) = (   0.0000000   0.4500000  -0.0769231), wk =   0.0025641
        k(  125) = (   0.0000000  -0.5000000   0.0000000), wk =   0.0012821
        k(  126) = (  -0.0000000  -0.5000000   0.0769231), wk =   0.0025641
        k(  127) = (  -0.0000000  -0.5000000   0.1538462), wk =   0.0025641
        k(  128) = (  -0.0000000  -0.5000000   0.2307692), wk =   0.0025641
        k(  129) = (  -0.0000000  -0.5000000   0.3076923), wk =   0.0025641
        k(  130) = (   0.0000000  -0.5000000   0.3846154), wk =   0.0025641
        k(  131) = (  -0.0000000  -0.5000000   0.4615385), wk =   0.0025641
        k(  132) = (   0.1666667   0.0000000   0.0000000), wk =   0.0025641
        k(  133) = (   0.1666667   0.0000000   0.0769231), wk =   0.0025641
        k(  134) = (   0.1666667   0.0000000   0.1538462), wk =   0.0025641
        k(  135) = (   0.1666667   0.0000000   0.2307692), wk =   0.0025641
        k(  136) = (   0.1666667   0.0000000   0.3076923), wk =   0.0025641
        k(  137) = (   0.1666667   0.0000000   0.3846154), wk =   0.0025641
        k(  138) = (   0.1666667   0.0000000   0.4615385), wk =   0.0025641
        k(  139) = (   0.1666667   0.0000000  -0.4615385), wk =   0.0025641
        k(  140) = (   0.1666667   0.0000000  -0.3846154), wk =   0.0025641
        k(  141) = (   0.1666667   0.0000000  -0.3076923), wk =   0.0025641
        k(  142) = (   0.1666667   0.0000000  -0.2307692), wk =   0.0025641
        k(  143) = (   0.1666667   0.0000000  -0.1538462), wk =   0.0025641
        k(  144) = (   0.1666667   0.0000000  -0.0769231), wk =   0.0025641
        k(  145) = (   0.1666667   0.0500000   0.0000000), wk =   0.0025641
        k(  146) = (   0.1666667   0.0500000   0.0769231), wk =   0.0025641
        k(  147) = (   0.1666667   0.0500000   0.1538462), wk =   0.0025641
        k(  148) = (   0.1666667   0.0500000   0.2307692), wk =   0.0025641
        k(  149) = (   0.1666667   0.0500000   0.3076923), wk =   0.0025641
        k(  150) = (   0.1666667   0.0500000   0.3846154), wk =   0.0025641
        k(  151) = (   0.1666667   0.0500000   0.4615385), wk =   0.0025641
        k(  152) = (   0.1666667   0.0500000  -0.4615385), wk =   0.0025641
[...]
    -0.0113

          k =-0.1675-1.8545 1.0063 ( 11614 PWs)   bands (ev):

    -3.6618  -3.6618  -3.1084  -3.1084  -2.2189  -2.2189  -1.7139  -1.7139
    -0.7924  -0.7924   0.5472   0.5472   0.8431   0.8431   1.8633   1.8633
     2.2551   2.2551   2.3491   2.3491   3.4818   3.4819   3.7850   3.7850
     3.9287   3.9287   4.4408   4.4408   4.6308   4.6308   5.6293   5.6293
     5.7167   5.7167   6.0497   6.0497   6.7896   6.7896   7.4855   7.4855
     7.7308

     occupation numbers 
     1.0000   1.0000   1.0000   1.0000   1.0000   1.0000   1.0000   1.0000
     1.0000   1.0000   1.0000   1.0000   1.0000   1.0000   1.0000   1.0000
     1.0000   1.0000   1.0000   1.0000   1.0000   1.0000   1.0000   1.0000
     1.0000   1.0000   1.0000   1.0000   1.0000   1.0000   1.0163   1.0163
     1.0227   1.0227   1.0298   1.0298   0.3499   0.3499  -0.0337  -0.0337
    -0.0165

     the Fermi energy is     6.6813 ev

!    total energy              =    -473.15907712 Ry
     Harris-Foulkes estimate   =    -473.15907712 Ry
     estimated scf accuracy    <          5.3E-13 Ry

     The total energy is the sum of the following terms:

     one-electron contribution =      36.29604182 Ry
     hartree contribution      =      13.23702661 Ry
     xc contribution           =     -90.15183332 Ry
     ewald contribution        =    -119.66965752 Ry
     one-center paw contrib.   =    -312.86926576 Ry
      -> PAW hartree energy AE =       0.81131363 Ry
      -> PAW hartree energy PS =      -0.80946772 Ry
      -> PAW xc energy AE      =     -32.61802492 Ry
      -> PAW xc energy PS      =       1.32224691 Ry
      -> total E_H with PAW    =      13.23887252 Ry
      -> total E_XC with PAW   =    -121.44761133 Ry
     smearing contrib. (-TS)   =      -0.00138896 Ry

     convergence has been achieved in  21 iterations

     Forces acting on atoms (cartesian axes, Ry/au):

     atom    1 type  1   force =    -0.00000210    0.00000003    0.00000007
     atom    2 type  1   force =    -0.00043763    0.00000016    0.00001429
     atom    3 type  1   force =    -0.00062142    0.00000035   -0.00012917
     atom    4 type  1   force =     0.00062136   -0.00000034    0.00012917
     atom    5 type  1   force =     0.00043737   -0.00000020   -0.00001464
     atom    6 type  2   force =     0.00003916   -0.00000039    0.00036513
     atom    7 type  2   force =    -0.00014753   -0.00000045    0.00106755
     atom    8 type  2   force =    -0.00059057   -0.00000112   -0.00060598
     atom    9 type  2   force =     0.00059194    0.00000116    0.00060552
     atom   10 type  2   force =     0.00014820    0.00000043   -0.00106611
     atom   11 type  2   force =    -0.00003928    0.00000034   -0.00036521
     atom   12 type  1   force =    -0.00000211   -0.00000003   -0.00000002
     atom   13 type  1   force =    -0.00043718    0.00000027    0.00001447
     atom   14 type  1   force =    -0.00062142    0.00000024   -0.00012916
     atom   15 type  1   force =     0.00062131   -0.00000026    0.00012903
     atom   16 type  1   force =     0.00043771   -0.00000024   -0.00001435
     atom   17 type  2   force =     0.00003962   -0.00000017    0.00036517
     atom   18 type  2   force =    -0.00014750   -0.00000065    0.00106599
     atom   19 type  2   force =    -0.00059100   -0.00000122   -0.00060522
     atom   20 type  2   force =     0.00059109    0.00000116    0.00060637
     atom   21 type  2   force =     0.00014833    0.00000066   -0.00106733
     atom   22 type  2   force =    -0.00003834    0.00000024   -0.00036553
     The non-local contrib.  to forces
     atom    1 type  1   force =    -0.00001304   -0.00000072   -0.00000044
     atom    2 type  1   force =     0.00764047   -0.00000011    0.01078467
     atom    3 type  1   force =     0.01690747   -0.00000052    0.00320345
     atom    4 type  1   force =    -0.01692378    0.00000041   -0.00320426
     atom    5 type  1   force =    -0.00765394    0.00000013   -0.01078987
     atom    6 type  2   force =     0.00004970   -0.00000040   -0.06315123
     atom    7 type  2   force =     0.04389473    0.00000048    0.01433179
     atom    8 type  2   force =    -0.01359126    0.00000042    0.02679743
     atom    9 type  2   force =     0.01359055   -0.00000057   -0.02679717
     atom   10 type  2   force =    -0.04389505   -0.00000051   -0.01433033
     atom   11 type  2   force =    -0.00004945    0.00000047    0.06315473
     atom   12 type  1   force =    -0.00001313    0.00000073   -0.00000040
     atom   13 type  1   force =     0.00764300   -0.00000063    0.01078492
     atom   14 type  1   force =     0.01690704   -0.00000068    0.00320452
     atom   15 type  1   force =    -0.01692397    0.00000083   -0.00320336
     atom   16 type  1   force =    -0.00765162    0.00000059   -0.01078932
     atom   17 type  2   force =     0.00005214    0.00000033   -0.06315400
     atom   18 type  2   force =     0.04389428    0.00000036    0.01433034
     atom   19 type  2   force =    -0.01359138    0.00000096    0.02680007
     atom   20 type  2   force =     0.01359048   -0.00000083   -0.02679466
     atom   21 type  2   force =    -0.04389542   -0.00000033   -0.01433126
     atom   22 type  2   force =    -0.00004698   -0.00000038    0.06315172
     The ionic contribution  to forces
     atom    1 type  1   force =    -0.00003285   -0.00000007   -0.00000684
     atom    2 type  1   force =    -0.41724194    0.00000028   -0.39088515
     atom    3 type  1   force =    -0.25199648    0.00000022    0.20027218
     atom    4 type  1   force =     0.25199424   -0.00000022   -0.20025531
     atom    5 type  1   force =     0.41721150   -0.00000028    0.39089079
     atom    6 type  2   force =    -0.24235467   -0.00000024    1.18532461
     atom    7 type  2   force =    -1.16296194   -0.00000053   -1.25142844
     atom    8 type  2   force =    -0.10042825   -0.00000053    0.73801225
     atom    9 type  2   force =     0.10044395    0.00000053   -0.73800983
     atom   10 type  2   force =     1.16300418    0.00000053    1.25141069
     atom   11 type  2   force =     0.24236540    0.00000024   -1.18532470
     atom   12 type  1   force =    -0.00003375    0.00000007   -0.00000716
     atom   13 type  1   force =    -0.41724298   -0.00000028   -0.39088542
     atom   14 type  1   force =    -0.25199712   -0.00000022    0.20027342
     atom   15 type  1   force =     0.25199450    0.00000022   -0.20025543
     atom   16 type  1   force =     0.41721201    0.00000028    0.39089096
     atom   17 type  2   force =    -0.24235826    0.00000024    1.18532507
     atom   18 type  2   force =    -1.16296355    0.00000053   -1.25142897
     atom   19 type  2   force =    -0.10042858    0.00000053    0.73801176
     atom   20 type  2   force =     0.10044264   -0.00000053   -0.73800969
     atom   21 type  2   force =     1.16300432   -0.00000053    1.25141069
     atom   22 type  2   force =     0.24236762   -0.00000024   -1.18532551
     The local contribution  to forces
     atom    1 type  1   force =     0.00004029    0.00000075    0.00000706
     atom    2 type  1   force =     0.41018794   -0.00000002    0.38060870
     atom    3 type  1   force =     0.23636745    0.00000060   -0.20303486
     atom    4 type  1   force =    -0.23635482   -0.00000048    0.20301836
     atom    5 type  1   force =    -0.41014987   -0.00000003   -0.38061057
     atom    6 type  2   force =     0.24219447    0.00000024   -1.12792715
     atom    7 type  2   force =     1.12315571   -0.00000034    1.23924069
     atom    8 type  2   force =     0.11202966   -0.00000094   -0.76245131
     atom    9 type  2   force =    -0.11204297    0.00000112    0.76244915
     atom   10 type  2   force =    -1.12319715    0.00000036   -1.23922282
     atom   11 type  2   force =    -0.24220393   -0.00000034    1.12792490
     atom   12 type  1   force =     0.00004125   -0.00000077    0.00000726
     atom   13 type  1   force =     0.41018715    0.00000112    0.38060895
     atom   14 type  1   force =     0.23636850    0.00000107   -0.20303708
     atom   15 type  1   force =    -0.23635493   -0.00000122    0.20301750
     atom   16 type  1   force =    -0.41015212   -0.00000105   -0.38061092
     atom   17 type  2   force =     0.24219637   -0.00000071   -1.12792514
     atom   18 type  2   force =     1.12315776   -0.00000148    1.23924098
     atom   19 type  2   force =     0.11202972   -0.00000259   -0.76245239
     atom   20 type  2   force =    -0.11204238    0.00000241    0.76244767
     atom   21 type  2   force =    -1.12319676    0.00000147   -1.23922321
     atom   22 type  2   force =    -0.24220734    0.00000083    1.12792805
     The core correction contribution to forces
     atom    1 type  1   force =     0.00000150    0.00000007    0.00000003
     atom    2 type  1   force =    -0.00102622    0.00000001   -0.00049422
     atom    3 type  1   force =    -0.00190197    0.00000006   -0.00057014
     atom    4 type  1   force =     0.00190378   -0.00000004    0.00057013
     atom    5 type  1   force =     0.00102777   -0.00000001    0.00049480
     atom    6 type  2   force =     0.00014745    0.00000004    0.00611877
     atom    7 type  2   force =    -0.00423830   -0.00000006   -0.00107689
     atom    8 type  2   force =     0.00139715   -0.00000005   -0.00296450
     atom    9 type  2   force =    -0.00140156    0.00000006    0.00296302
     atom   10 type  2   force =     0.00423443    0.00000006    0.00107625
     atom   11 type  2   force =    -0.00015317   -0.00000005   -0.00612045
     atom   12 type  1   force =     0.00000150   -0.00000007    0.00000003
     atom   13 type  1   force =    -0.00102646    0.00000007   -0.00049424
     atom   14 type  1   force =    -0.00190193    0.00000007   -0.00057026
     atom   15 type  1   force =     0.00190380   -0.00000009    0.00057004
     atom   16 type  1   force =     0.00102755   -0.00000006    0.00049474
     atom   17 type  2   force =     0.00014720   -0.00000004    0.00611907
     atom   18 type  2   force =    -0.00423825   -0.00000004   -0.00107674
     atom   19 type  2   force =     0.00139716   -0.00000011   -0.00296479
     atom   20 type  2   force =    -0.00140155    0.00000009    0.00296274
     atom   21 type  2   force =     0.00423447    0.00000004    0.00107634
     atom   22 type  2   force =    -0.00015343    0.00000004   -0.00612012
     The Hubbard contrib.    to forces
     atom    1 type  1   force =     0.00000000    0.00000000    0.00000000
     atom    2 type  1   force =     0.00000000    0.00000000    0.00000000
     atom    3 type  1   force =     0.00000000    0.00000000    0.00000000
     atom    4 type  1   force =     0.00000000    0.00000000    0.00000000
     atom    5 type  1   force =     0.00000000    0.00000000    0.00000000
     atom    6 type  2   force =     0.00000000    0.00000000    0.00000000
     atom    7 type  2   force =     0.00000000    0.00000000    0.00000000
     atom    8 type  2   force =     0.00000000    0.00000000    0.00000000
     atom    9 type  2   force =     0.00000000    0.00000000    0.00000000
     atom   10 type  2   force =     0.00000000    0.00000000    0.00000000
     atom   11 type  2   force =     0.00000000    0.00000000    0.00000000
     atom   12 type  1   force =     0.00000000    0.00000000    0.00000000
     atom   13 type  1   force =     0.00000000    0.00000000    0.00000000
     atom   14 type  1   force =     0.00000000    0.00000000    0.00000000
     atom   15 type  1   force =     0.00000000    0.00000000    0.00000000
     atom   16 type  1   force =     0.00000000    0.00000000    0.00000000
     atom   17 type  2   force =     0.00000000    0.00000000    0.00000000
     atom   18 type  2   force =     0.00000000    0.00000000    0.00000000
     atom   19 type  2   force =     0.00000000    0.00000000    0.00000000
     atom   20 type  2   force =     0.00000000    0.00000000    0.00000000
     atom   21 type  2   force =     0.00000000    0.00000000    0.00000000
     atom   22 type  2   force =     0.00000000    0.00000000    0.00000000
     The SCF correction term to forces
     atom    1 type  1   force =    -0.00000000   -0.00000000    0.00000001
     atom    2 type  1   force =     0.00000011    0.00000001    0.00000004
     atom    3 type  1   force =     0.00000010    0.00000000   -0.00000003
     atom    4 type  1   force =    -0.00000007   -0.00000000    0.00000001
     atom    5 type  1   force =    -0.00000009   -0.00000000   -0.00000002
     atom    6 type  2   force =     0.00000020   -0.00000003   -0.00000010
     atom    7 type  2   force =     0.00000027   -0.00000001    0.00000015
     atom    8 type  2   force =     0.00000011   -0.00000001   -0.00000009
     atom    9 type  2   force =    -0.00000006    0.00000001    0.00000011
     atom   10 type  2   force =    -0.00000021    0.00000000   -0.00000013
     atom   11 type  2   force =    -0.00000015    0.00000002    0.00000007
     atom   12 type  1   force =     0.00000001    0.00000000    0.00000000
     atom   13 type  1   force =     0.00000010   -0.00000000    0.00000002
     atom   14 type  1   force =     0.00000008   -0.00000000   -0.00000000
     atom   15 type  1   force =    -0.00000010   -0.00000000    0.00000004
     atom   16 type  1   force =    -0.00000012    0.00000000   -0.00000005
     atom   17 type  2   force =     0.00000017    0.00000001   -0.00000007
     atom   18 type  2   force =     0.00000024   -0.00000000    0.00000013
     atom   19 type  2   force =     0.00000006   -0.00000002   -0.00000011
     atom   20 type  2   force =    -0.00000013    0.00000002    0.00000006
     atom   21 type  2   force =    -0.00000029    0.00000001   -0.00000014
     atom   22 type  2   force =    -0.00000022   -0.00000001    0.00000008

     Total force =     0.003228     Total SCF correction =     0.000001


     Computing stress (Cartesian axis) and pressure

          total   stress  (Ry/bohr**3)                   (kbar)     P=   -4.69
  -0.00003154  -0.00000001  -0.00001091         -4.64     -0.00     -1.60
  -0.00000001  -0.00002919  -0.00000000         -0.00     -4.29     -0.00
  -0.00001091  -0.00000000  -0.00003489         -1.60     -0.00     -5.13

     kinetic stress (kbar)   1564.94     -0.00     -0.18
                               -0.00   1587.72     -0.00
                               -0.18     -0.00   1585.33

     local   stress (kbar)   -151.32     -0.00    282.98
                               -0.00   -387.31      0.00
                              282.98      0.00    189.28

     nonloc. stress (kbar)   1238.18      0.00      2.51
                                0.00   1222.80     -0.00
                                2.51     -0.00   1222.40

     hartree stress (kbar)    217.34     -0.00   -126.93
                               -0.00    388.11      0.00
                             -126.93      0.00    110.35

     exc-cor stress (kbar)   1968.25      0.00      0.09
                                0.00   1967.59     -0.00
                                0.09     -0.00   1967.60

     corecor stress (kbar)  -2745.95     -0.00     -0.38
                               -0.00  -2744.10      0.00
                               -0.38      0.00  -2744.07

     ewald   stress (kbar)  -2096.09     -0.00   -159.69
                               -0.00  -2039.09     -0.00
                             -159.69     -0.00  -2336.03

     hubbard stress (kbar)      0.00      0.00      0.00
                                0.00      0.00      0.00
                                0.00      0.00      0.00

     london  stress (kbar)      0.00      0.00      0.00
                                0.00      0.00      0.00
                                0.00      0.00      0.00

     DFT-D3  stress (kbar)      0.00      0.00      0.00
                                0.00      0.00      0.00
                                0.00      0.00      0.00

     XDM     stress (kbar)      0.00      0.00      0.00
                                0.00      0.00      0.00
                                0.00      0.00      0.00

     dft-nl  stress (kbar)      0.00      0.00      0.00
                                0.00      0.00      0.00
                                0.00      0.00      0.00

     TS-vdW  stress (kbar)      0.00      0.00      0.00
                                0.00      0.00      0.00
                                0.00      0.00      0.00



     Writing output data file aiida.save/
 
     init_run     :     22.84s CPU     23.24s WALL (       1 calls)
     electrons    :    950.44s CPU    963.88s WALL (       1 calls)
     forces       :      8.92s CPU      9.02s WALL (       1 calls)
     stress       :     66.94s CPU     68.14s WALL (       1 calls)

     Called by init_run:
     wfcinit      :     21.09s CPU     21.43s WALL (       1 calls)
     wfcinit:atom :      0.17s CPU      0.18s WALL (     196 calls)
     wfcinit:wfcr :     19.61s CPU     19.88s WALL (     196 calls)
     potinit      :      0.58s CPU      0.59s WALL (       1 calls)
     hinit0       :      1.02s CPU      1.04s WALL (       1 calls)

     Called by electrons:
     c_bands      :    845.78s CPU    856.17s WALL (      22 calls)
     sum_band     :     99.99s CPU    102.13s WALL (      22 calls)
     v_of_rho     :      1.96s CPU      2.12s WALL (      22 calls)
     v_h          :      0.15s CPU      0.16s WALL (      22 calls)
     v_xc         :      1.96s CPU      2.11s WALL (      24 calls)
     newd         :      1.12s CPU      1.74s WALL (      22 calls)
     PAW_pot      :      0.72s CPU      0.73s WALL (      22 calls)
     mix_rho      :      0.71s CPU      0.77s WALL (      22 calls)

     Called by c_bands:
     init_us_2    :     28.84s CPU     29.34s WALL (    9212 calls)
     cegterg      :    657.00s CPU    665.62s WALL (    4312 calls)

     Called by sum_band:
     sum_band:bec :      0.59s CPU      0.60s WALL (    4312 calls)
     addusdens    :      1.05s CPU      1.70s WALL (      22 calls)

     Called by *egterg:
     h_psi        :    453.60s CPU    460.70s WALL (   18514 calls)
     s_psi        :     65.11s CPU     65.35s WALL (   18514 calls)
     g_psi        :      3.04s CPU      3.06s WALL (   14006 calls)
     cdiaghg      :     69.87s CPU     70.89s WALL (   18122 calls)
     cegterg:over :     31.68s CPU     31.88s WALL (   14006 calls)
     cegterg:upda :     26.44s CPU     26.68s WALL (   14006 calls)
     cegterg:last :     10.94s CPU     11.00s WALL (    4690 calls)
     cdiaghg:chol :      4.38s CPU      4.42s WALL (   18122 calls)
     cdiaghg:inve :      0.93s CPU      0.94s WALL (   18122 calls)
     cdiaghg:para :      8.95s CPU      9.02s WALL (   36244 calls)

     Called by h_psi:
     h_psi:pot    :    451.18s CPU    458.26s WALL (   18514 calls)
     h_psi:calbec :     64.26s CPU     65.00s WALL (   18514 calls)
     vloc_psi     :    320.85s CPU    327.03s WALL (   18514 calls)
     add_vuspsi   :     65.88s CPU     66.09s WALL (   18514 calls)

     General routines
     calbec       :    124.16s CPU    126.30s WALL (   23806 calls)
     fft          :      1.60s CPU      1.73s WALL (     311 calls)
     ffts         :      0.24s CPU      0.25s WALL (     346 calls)
     fftw         :    344.50s CPU    351.01s WALL ( 1133668 calls)
     interpolate  :      0.18s CPU      0.18s WALL (      22 calls)
 
     Parallel routines
     fft_scatt_xy :     44.09s CPU     44.95s WALL ( 1134325 calls)
     fft_scatt_yz :    131.40s CPU    134.10s WALL ( 1134325 calls)

     PAW routines
     PAW_pot      :      0.72s CPU      0.73s WALL (      22 calls)
 
     PWSCF        :  17m53.11s CPU  18m27.73s WALL

 
   This run was terminated on:  11:41:42  22Feb2020            

=------------------------------------------------------------------------------=
   JOB DONE.
=------------------------------------------------------------------------------=
