
     Program PWSCF v.6.3 starts on 22Feb2020 at 14:12:17 

     This program is part of the open-source Quantum ESPRESSO suite
     for quantum simulation of materials; please cite
         "P. Giannozzi et al., J. Phys.:Condens. Matter 21 395502 (2009);
         "P. Giannozzi et al., J. Phys.:Condens. Matter 29 465901 (2017);
          URL http://www.quantum-espresso.org", 
     in publications or presentations arising from this work. More details at
     http://www.quantum-espresso.org/quote

 *** WARNING: using old-style file format, will disappear from next version ***

     Parallel version (MPI & OpenMP), running on      36 processor cores
     Number of MPI processes:                36
     Threads/MPI process:                     1

     MPI processes distributed on     1 nodes
     K-points division:     npool     =       4
     R & G space division:  proc/nbgrp/npool/nimage =       9
     Reading input from aiida.in
Warning: card &IONS ignored
Warning: card   !PRESS_CONV_THR = 0.05                 ! JUST FOR VOLUME RELAXATIONS ignored
Warning: card / ignored

     Current dimensions of program PWSCF are:
     Max number of different atomic species (ntypx) = 10
     Max number of k-points (npk) =  40000
     Max angular momentum in pseudopotentials (lmaxx) =  3
               file Mg.pbe-n-kjpaw_psl.0.3.0.UPF: wavefunction(s)  3S renormalized
               file Al.pbe-n-kjpaw_psl.1.0.0.UPF: wavefunction(s)  3S 3P renormalized

     Subspace diagonalization in iterative solution of the eigenvalue problem:
     one sub-group per band group will be used
     scalapack distributed-memory algorithm (size of sub-group:  2*  2 procs)

 
     Parallelization info
     --------------------
     sticks:   dense  smooth     PW     G-vecs:    dense   smooth      PW
     Min         786     314     91                41390    10469    1637
     Max         787     315     92                41391    10471    1640
     Sum        7077    2833    827               372511    94235   14749
 


     bravais-lattice index     =            0
     lattice parameter (alat)  =      28.9756  a.u.
     unit-cell volume          =    2757.3369 (a.u.)^3
     number of atoms/cell      =           22
     number of atomic types    =            3
     number of electrons       =        64.00
     number of Kohn-Sham states=           38
     kinetic-energy cutoff     =      40.0000  Ry
     charge density cutoff     =     400.0000  Ry
     convergence threshold     =      1.0E-12
     mixing beta               =       0.4000
     number of iterations used =            8  local-TF  mixing
     Exchange-correlation      = SLA PW PBX PBC ( 1  4  3  4 0 0)

     celldm(1)=  28.975565  celldm(2)=   0.000000  celldm(3)=   0.000000
     celldm(4)=   0.000000  celldm(5)=   0.000000  celldm(6)=   0.000000

     crystal axes: (cart. coord. in units of alat)
               a(1) = (   0.961322   0.000132  -0.275428 )  
               a(2) = (   0.000481   0.264413  -0.000138 )  
               a(3) = (   0.000000   0.000000   0.445906 )  

     reciprocal axes: (cart. coord. in units 2 pi/alat)
               b(1) = (  1.040235 -0.001891  0.000000 )  
               b(2) = ( -0.000520  3.781968  0.000000 )  
               b(3) = (  0.642535 -0.000000  2.242626 )  


     PseudoPot. # 1 for Mg read from file:
     /users/aglensk/Dropbox/Albert/scripts/dotfiles/scripts/potentials/quantum_espresso/pseudo_SSSPefV1.1_alalloy/Mg.pbe-n-kjpaw_psl.0.3.0.UPF
     MD5 check sum: 24ecedc7f3e3cbe212e682f4413594e4
     Pseudo is Projector augmented-wave + core cor, Zval =  2.0
     Generated using "atomic" code by A. Dal Corso v.5.0.99 svn rev. 10869
     Shape of augmentation charge: PSQ
     Using radial grid of 1129 points,  4 beta functions with: 
                l(1) =   0
                l(2) =   0
                l(3) =   1
                l(4) =   1
     Q(r) pseudized with 0 coefficients 


     PseudoPot. # 2 for Si read from file:
     /users/aglensk/Dropbox/Albert/scripts/dotfiles/scripts/potentials/quantum_espresso/pseudo_SSSPefV1.1_alalloy/Si.pbe-n-rrkjus_psl.1.0.0.UPF
     MD5 check sum: 0b0bb1205258b0d07b9f9672cf965d36
     Pseudo is Ultrasoft + core correction, Zval =  4.0
     Generated using "atomic" code by A. Dal Corso v.5.1
     Using radial grid of 1141 points,  6 beta functions with: 
                l(1) =   0
                l(2) =   0
                l(3) =   1
                l(4) =   1
                l(5) =   2
                l(6) =   2
     Q(r) pseudized with 0 coefficients 


     PseudoPot. # 3 for Al read from file:
     /users/aglensk/Dropbox/Albert/scripts/dotfiles/scripts/potentials/quantum_espresso/pseudo_SSSPefV1.1_alalloy/Al.pbe-n-kjpaw_psl.1.0.0.UPF
     MD5 check sum: cfc449ca30b5f3223ec38ddd88ac046d
     Pseudo is Projector augmented-wave + core cor, Zval =  3.0
     Generated using "atomic" code by A. Dal Corso v.5.1
     Shape of augmentation charge: PSQ
     Using radial grid of 1135 points,  6 beta functions with: 
                l(1) =   0
                l(2) =   0
                l(3) =   1
                l(4) =   1
                l(5) =   2
                l(6) =   2
     Q(r) pseudized with 0 coefficients 


     atomic species   valence    mass     pseudopotential
        Mg             2.00    24.30500     Mg( 1.00)
        Si             4.00    28.08500     Si( 1.00)
        Al             3.00    26.98154     Al( 1.00)

     No symmetry found


                                    s                        frac. trans.

      isym =  1     identity                                     

 cryst.   s( 1) = (     1          0          0      )
                  (     0          1          0      )
                  (     0          0          1      )

 cart.    s( 1) = (  1.0000000  0.0000000  0.0000000 )
                  (  0.0000000  1.0000000  0.0000000 )
                  ( -0.0000000 -0.0000000  1.0000000 )


   Cartesian axes

     site n.     atom                  positions (alat units)
         1           Mg  tau(   1) = (   0.0017178   0.2643968   0.4403052  )
         2           Mg  tau(   2) = (   0.0729900   0.1321564   0.1341446  )
         3           Mg  tau(   3) = (   0.1502821   0.1321750   0.3591476  )
         4           Mg  tau(   4) = (   0.3335720   0.2644441  -0.0620792  )
         5           Mg  tau(   5) = (   0.4108633   0.2644627   0.1629255  )
         6           Si  tau(   6) = (   0.0572631   0.2643857   0.2719720  )
         7           Si  tau(   7) = (   0.1796963   0.0000798   0.0426341  )
         8           Al  tau(   8) = (   0.2101189   0.2644298   0.2099231  )
         9           Al  tau(   9) = (   0.2737340   0.1321893   0.0871467  )
        10           Si  tau(  10) = (   0.3036779   0.1321265   0.2545723  )
        11           Si  tau(  11) = (   0.4265882   0.1322332   0.0250977  )
        12           Mg  tau(  12) = (   0.4821354   0.1322225   0.3026710  )
        13           Mg  tau(  13) = (   0.5538800   0.2643969  -0.0036163  )
        14           Mg  tau(  14) = (   0.6311862   0.2644260   0.2213740  )
        15           Mg  tau(  15) = (   0.8139896   0.1323253  -0.1997339  )
        16           Mg  tau(  16) = (   0.8912950   0.1323544   0.0252581  )
        17           Si  tau(  17) = (   0.5376848   0.1322128   0.1343363  )
        18           Si  tau(  18) = (   0.6605972   0.1323448  -0.0951439  )
        19           Al  tau(  19) = (   0.6905415   0.1322873   0.0722780  )
        20           Al  tau(  20) = (   0.7546330   0.2644640  -0.0506366  )
        21           Si  tau(  21) = (   0.7845793   0.2644064   0.1167843  )
        22           Si  tau(  22) = (   0.9070074   0.0001255  -0.1125572  )

   Crystallographic axes

     site n.     atom                  positions (cryst. coord.)
         1           Mg  tau(   1) = (  0.0012869  0.9999392  0.9885434  )
         2           Mg  tau(   2) = (  0.0756769  0.4997731  0.3477348  )
         3           Mg  tau(   3) = (  0.1560788  0.4998035  0.9019951  )
         4           Mg  tau(   4) = (  0.3464931  0.9999455  0.0751111  )
         5           Mg  tau(   5) = (  0.4268942  0.9999758  0.6293749  )
         6           Si  tau(   6) = (  0.0590672  0.9998683  0.6467249  )
         7           Si  tau(   7) = (  0.1869262  0.0002082  0.2110734  )
         8           Al  tau(   8) = (  0.2180730  0.9999557  0.6057875  )
         9           Al  tau(   9) = (  0.2844976  0.4997932  0.3713211  )
        10           Si  tau(  10) = (  0.3156465  0.4995403  0.7660340  )
        11           Si  tau(  11) = (  0.4435018  0.4998797  0.3303824  )
        12           Mg  tau(  12) = (  0.5012840  0.4998105  0.9885665  )
        13           Mg  tau(  13) = (  0.5756654  0.9996525  0.3477772  )
        14           Mg  tau(  14) = (  0.6560818  0.9997225  0.9020181  )
        15           Mg  tau(  15) = (  0.8464901  0.5000266  0.0750881  )
        16           Mg  tau(  16) = (  0.9269058  0.5000964  0.6293325  )
        17           Si  tau(  17) = (  0.5590685  0.4997451  0.6467472  )
        18           Si  tau(  18) = (  0.6869260  0.5001800  0.2110845  )
        19           Al  tau(  19) = (  0.7180751  0.4999469  0.6057895  )
        20           Al  tau(  20) = (  0.7844955  0.9998019  0.3713191  )
        21           Si  tau(  21) = (  0.8156468  0.9995685  0.7660228  )
        22           Si  tau(  22) = (  0.9435005  0.0000029  0.3303602  )

     number of k points=   782  Methfessel-Paxton smearing, width (Ry)=  0.0441
                       cart. coord. in units 2pi/alat
        k(    1) = (   0.0000000   0.0000000   0.0000000), wk =   0.0012821
        k(    2) = (   0.0494257  -0.0000000   0.1725097), wk =   0.0025641
        k(    3) = (   0.0988515  -0.0000000   0.3450193), wk =   0.0025641
        k(    4) = (   0.1482772  -0.0000000   0.5175290), wk =   0.0025641
        k(    5) = (   0.1977030  -0.0000000   0.6900387), wk =   0.0025641
        k(    6) = (   0.2471287  -0.0000000   0.8625483), wk =   0.0025641
        k(    7) = (   0.2965545  -0.0000000   1.0350580), wk =   0.0025641
        k(    8) = (  -0.0000260   0.1890984   0.0000000), wk =   0.0025641
        k(    9) = (   0.0493997   0.1890984   0.1725097), wk =   0.0025641
        k(   10) = (   0.0988255   0.1890984   0.3450193), wk =   0.0025641
        k(   11) = (   0.1482512   0.1890984   0.5175290), wk =   0.0025641
        k(   12) = (   0.1976770   0.1890984   0.6900387), wk =   0.0025641
        k(   13) = (   0.2471027   0.1890984   0.8625483), wk =   0.0025641
        k(   14) = (   0.2965285   0.1890984   1.0350580), wk =   0.0025641
        k(   15) = (  -0.2965805   0.1890984  -1.0350580), wk =   0.0025641
        k(   16) = (  -0.2471548   0.1890984  -0.8625483), wk =   0.0025641
        k(   17) = (  -0.1977290   0.1890984  -0.6900387), wk =   0.0025641
        k(   18) = (  -0.1483033   0.1890984  -0.5175290), wk =   0.0025641
        k(   19) = (  -0.0988775   0.1890984  -0.3450193), wk =   0.0025641
        k(   20) = (  -0.0494518   0.1890984  -0.1725097), wk =   0.0025641
        k(   21) = (  -0.0000520   0.3781968   0.0000000), wk =   0.0025641
        k(   22) = (   0.0493737   0.3781968   0.1725097), wk =   0.0025641
        k(   23) = (   0.0987995   0.3781968   0.3450193), wk =   0.0025641
        k(   24) = (   0.1482252   0.3781968   0.5175290), wk =   0.0025641
        k(   25) = (   0.1976510   0.3781968   0.6900387), wk =   0.0025641
        k(   26) = (   0.2470767   0.3781967   0.8625483), wk =   0.0025641
        k(   27) = (   0.2965025   0.3781967   1.0350580), wk =   0.0025641
        k(   28) = (  -0.2966065   0.3781968  -1.0350580), wk =   0.0025641
        k(   29) = (  -0.2471808   0.3781968  -0.8625483), wk =   0.0025641
        k(   30) = (  -0.1977550   0.3781968  -0.6900387), wk =   0.0025641
        k(   31) = (  -0.1483293   0.3781968  -0.5175290), wk =   0.0025641
        k(   32) = (  -0.0989035   0.3781968  -0.3450193), wk =   0.0025641
        k(   33) = (  -0.0494778   0.3781968  -0.1725097), wk =   0.0025641
        k(   34) = (  -0.0000780   0.5672952   0.0000000), wk =   0.0025641
        k(   35) = (   0.0493477   0.5672952   0.1725097), wk =   0.0025641
        k(   36) = (   0.0987735   0.5672952   0.3450193), wk =   0.0025641
        k(   37) = (   0.1481992   0.5672951   0.5175290), wk =   0.0025641
        k(   38) = (   0.1976250   0.5672951   0.6900387), wk =   0.0025641
        k(   39) = (   0.2470507   0.5672951   0.8625483), wk =   0.0025641
        k(   40) = (   0.2964765   0.5672951   1.0350580), wk =   0.0025641
        k(   41) = (  -0.2966325   0.5672952  -1.0350580), wk =   0.0025641
        k(   42) = (  -0.2472068   0.5672952  -0.8625483), wk =   0.0025641
        k(   43) = (  -0.1977810   0.5672952  -0.6900387), wk =   0.0025641
        k(   44) = (  -0.1483553   0.5672952  -0.5175290), wk =   0.0025641
        k(   45) = (  -0.0989295   0.5672952  -0.3450193), wk =   0.0025641
        k(   46) = (  -0.0495038   0.5672952  -0.1725097), wk =   0.0025641
        k(   47) = (  -0.0001040   0.7563935   0.0000000), wk =   0.0025641
        k(   48) = (   0.0493217   0.7563935   0.1725097), wk =   0.0025641
        k(   49) = (   0.0987475   0.7563935   0.3450193), wk =   0.0025641
        k(   50) = (   0.1481732   0.7563935   0.5175290), wk =   0.0025641
        k(   51) = (   0.1975990   0.7563935   0.6900387), wk =   0.0025641
        k(   52) = (   0.2470247   0.7563935   0.8625483), wk =   0.0025641
        k(   53) = (   0.2964505   0.7563935   1.0350580), wk =   0.0025641
        k(   54) = (  -0.2966585   0.7563936  -1.0350580), wk =   0.0025641
        k(   55) = (  -0.2472328   0.7563936  -0.8625483), wk =   0.0025641
        k(   56) = (  -0.1978070   0.7563936  -0.6900387), wk =   0.0025641
        k(   57) = (  -0.1483813   0.7563936  -0.5175290), wk =   0.0025641
        k(   58) = (  -0.0989555   0.7563936  -0.3450193), wk =   0.0025641
        k(   59) = (  -0.0495298   0.7563936  -0.1725097), wk =   0.0025641
        k(   60) = (  -0.0001300   0.9454919   0.0000000), wk =   0.0025641
        k(   61) = (   0.0492957   0.9454919   0.1725097), wk =   0.0025641
        k(   62) = (   0.0987215   0.9454919   0.3450193), wk =   0.0025641
        k(   63) = (   0.1481472   0.9454919   0.5175290), wk =   0.0025641
        k(   64) = (   0.1975730   0.9454919   0.6900387), wk =   0.0025641
        k(   65) = (   0.2469987   0.9454919   0.8625483), wk =   0.0025641
        k(   66) = (   0.2964245   0.9454919   1.0350580), wk =   0.0025641
        k(   67) = (  -0.2966845   0.9454920  -1.0350580), wk =   0.0025641
        k(   68) = (  -0.2472588   0.9454920  -0.8625483), wk =   0.0025641
        k(   69) = (  -0.1978330   0.9454920  -0.6900387), wk =   0.0025641
        k(   70) = (  -0.1484073   0.9454920  -0.5175290), wk =   0.0025641
        k(   71) = (  -0.0989815   0.9454919  -0.3450193), wk =   0.0025641
        k(   72) = (  -0.0495558   0.9454919  -0.1725097), wk =   0.0025641
        k(   73) = (  -0.0001560   1.1345903   0.0000000), wk =   0.0025641
        k(   74) = (   0.0492697   1.1345903   0.1725097), wk =   0.0025641
        k(   75) = (   0.0986955   1.1345903   0.3450193), wk =   0.0025641
        k(   76) = (   0.1481212   1.1345903   0.5175290), wk =   0.0025641
        k(   77) = (   0.1975470   1.1345903   0.6900387), wk =   0.0025641
        k(   78) = (   0.2469727   1.1345903   0.8625483), wk =   0.0025641
        k(   79) = (   0.2963985   1.1345903   1.0350580), wk =   0.0025641
        k(   80) = (  -0.2967105   1.1345904  -1.0350580), wk =   0.0025641
        k(   81) = (  -0.2472848   1.1345903  -0.8625483), wk =   0.0025641
        k(   82) = (  -0.1978590   1.1345903  -0.6900387), wk =   0.0025641
        k(   83) = (  -0.1484333   1.1345903  -0.5175290), wk =   0.0025641
        k(   84) = (  -0.0990075   1.1345903  -0.3450193), wk =   0.0025641
        k(   85) = (  -0.0495818   1.1345903  -0.1725097), wk =   0.0025641
        k(   86) = (  -0.0001821   1.3236887   0.0000000), wk =   0.0025641
        k(   87) = (   0.0492437   1.3236887   0.1725097), wk =   0.0025641
        k(   88) = (   0.0986694   1.3236887   0.3450193), wk =   0.0025641
        k(   89) = (   0.1480952   1.3236887   0.5175290), wk =   0.0025641
        k(   90) = (   0.1975209   1.3236887   0.6900387), wk =   0.0025641
        k(   91) = (   0.2469467   1.3236887   0.8625483), wk =   0.0025641
        k(   92) = (   0.2963724   1.3236887   1.0350580), wk =   0.0025641
        k(   93) = (  -0.2967365   1.3236887  -1.0350580), wk =   0.0025641
        k(   94) = (  -0.2473108   1.3236887  -0.8625483), wk =   0.0025641
        k(   95) = (  -0.1978851   1.3236887  -0.6900387), wk =   0.0025641
        k(   96) = (  -0.1484593   1.3236887  -0.5175290), wk =   0.0025641
        k(   97) = (  -0.0990336   1.3236887  -0.3450193), wk =   0.0025641
        k(   98) = (  -0.0496078   1.3236887  -0.1725097), wk =   0.0025641
        k(   99) = (  -0.0002081   1.5127871   0.0000000), wk =   0.0025641
        k(  100) = (   0.0492177   1.5127871   0.1725097), wk =   0.0025641
        k(  101) = (   0.0986434   1.5127871   0.3450193), wk =   0.0025641
        k(  102) = (   0.1480692   1.5127871   0.5175290), wk =   0.0025641
        k(  103) = (   0.1974949   1.5127871   0.6900387), wk =   0.0025641
        k(  104) = (   0.2469207   1.5127871   0.8625483), wk =   0.0025641
        k(  105) = (   0.2963464   1.5127871   1.0350580), wk =   0.0025641
        k(  106) = (  -0.2967626   1.5127871  -1.0350580), wk =   0.0025641
        k(  107) = (  -0.2473368   1.5127871  -0.8625483), wk =   0.0025641
        k(  108) = (  -0.1979111   1.5127871  -0.6900387), wk =   0.0025641
        k(  109) = (  -0.1484853   1.5127871  -0.5175290), wk =   0.0025641
        k(  110) = (  -0.0990596   1.5127871  -0.3450193), wk =   0.0025641
        k(  111) = (  -0.0496338   1.5127871  -0.1725097), wk =   0.0025641
        k(  112) = (  -0.0002341   1.7018855   0.0000000), wk =   0.0025641
        k(  113) = (   0.0491917   1.7018855   0.1725097), wk =   0.0025641
        k(  114) = (   0.0986174   1.7018855   0.3450193), wk =   0.0025641
        k(  115) = (   0.1480432   1.7018855   0.5175290), wk =   0.0025641
        k(  116) = (   0.1974689   1.7018855   0.6900387), wk =   0.0025641
        k(  117) = (   0.2468947   1.7018855   0.8625483), wk =   0.0025641
        k(  118) = (   0.2963204   1.7018855   1.0350580), wk =   0.0025641
        k(  119) = (  -0.2967886   1.7018855  -1.0350580), wk =   0.0025641
        k(  120) = (  -0.2473628   1.7018855  -0.8625483), wk =   0.0025641
        k(  121) = (  -0.1979371   1.7018855  -0.6900387), wk =   0.0025641
        k(  122) = (  -0.1485113   1.7018855  -0.5175290), wk =   0.0025641
        k(  123) = (  -0.0990856   1.7018855  -0.3450193), wk =   0.0025641
        k(  124) = (  -0.0496598   1.7018855  -0.1725097), wk =   0.0025641
        k(  125) = (   0.0002601  -1.8909839   0.0000000), wk =   0.0012821
        k(  126) = (   0.0496858  -1.8909839   0.1725097), wk =   0.0025641
        k(  127) = (   0.0991116  -1.8909839   0.3450193), wk =   0.0025641
        k(  128) = (   0.1485373  -1.8909839   0.5175290), wk =   0.0025641
        k(  129) = (   0.1979631  -1.8909839   0.6900387), wk =   0.0025641
        k(  130) = (   0.2473888  -1.8909839   0.8625483), wk =   0.0025641
        k(  131) = (   0.2968146  -1.8909839   1.0350580), wk =   0.0025641
        k(  132) = (   0.1733725  -0.0003152   0.0000000), wk =   0.0025641
        k(  133) = (   0.2227982  -0.0003152   0.1725097), wk =   0.0025641
        k(  134) = (   0.2722240  -0.0003152   0.3450193), wk =   0.0025641
        k(  135) = (   0.3216497  -0.0003152   0.5175290), wk =   0.0025641
        k(  136) = (   0.3710755  -0.0003152   0.6900387), wk =   0.0025641
        k(  137) = (   0.4205012  -0.0003152   0.8625483), wk =   0.0025641
        k(  138) = (   0.4699270  -0.0003152   1.0350580), wk =   0.0025641
        k(  139) = (  -0.1231820  -0.0003151  -1.0350580), wk =   0.0025641
        k(  140) = (  -0.0737563  -0.0003151  -0.8625483), wk =   0.0025641
        k(  141) = (  -0.0243305  -0.0003151  -0.6900387), wk =   0.0025641
        k(  142) = (   0.0250952  -0.0003151  -0.5175290), wk =   0.0025641
        k(  143) = (   0.0745210  -0.0003151  -0.3450193), wk =   0.0025641
        k(  144) = (   0.1239467  -0.0003151  -0.1725097), wk =   0.0025641
        k(  145) = (   0.1733465   0.1887832   0.0000000), wk =   0.0025641
        k(  146) = (   0.2227722   0.1887832   0.1725097), wk =   0.0025641
        k(  147) = (   0.2721980   0.1887832   0.3450193), wk =   0.0025641
        k(  148) = (   0.3216237   0.1887832   0.5175290), wk =   0.0025641
        k(  149) = (   0.3710495   0.1887832   0.6900387), wk =   0.0025641
        k(  150) = (   0.4204752   0.1887832   0.8625483), wk =   0.0025641
        k(  151) = (   0.4699010   0.1887832   1.0350580), wk =   0.0025641
        k(  152) = (  -0.1232080   0.1887833  -1.0350580), wk =   0.0025641
        k(  153) = (  -0.0737823   0.1887833  -0.8625483), wk =   0.0025641
        k(  154) = (  -0.0243565   0.1887833  -0.6900387), wk =   0.0025641
        k(  155) = (   0.0250692   0.1887832  -0.5175290), wk =   0.0025641
        k(  156) = (   0.0744950   0.1887832  -0.3450193), wk =   0.0025641
        k(  157) = (   0.1239207   0.1887832  -0.1725097), wk =   0.0025641
        k(  158) = (   0.1733205   0.3778816   0.0000000), wk =   0.0025641
        k(  159) = (   0.2227462   0.3778816   0.1725097), wk =   0.0025641
        k(  160) = (   0.2721720   0.3778816   0.3450193), wk =   0.0025641
        k(  161) = (   0.3215977   0.3778816   0.5175290), wk =   0.0025641
        k(  162) = (   0.3710235   0.3778816   0.6900387), wk =   0.0025641
        k(  163) = (   0.4204492   0.3778816   0.8625483), wk =   0.0025641
        k(  164) = (   0.4698750   0.3778816   1.0350580), wk =   0.0025641
        k(  165) = (  -0.1232340   0.3778817  -1.0350580), wk =   0.0025641
        k(  166) = (  -0.0738083   0.3778816  -0.8625483), wk =   0.0025641
        k(  167) = (  -0.0243825   0.3778816  -0.6900387), wk =   0.0025641
        k(  168) = (   0.0250432   0.3778816  -0.5175290), wk =   0.0025641
        k(  169) = (   0.0744690   0.3778816  -0.3450193), wk =   0.0025641
        k(  170) = (   0.1238947   0.3778816  -0.1725097), wk =   0.0025641
        k(  171) = (   0.1732945   0.5669800   0.0000000), wk =   0.0025641
        k(  172) = (   0.2227202   0.5669800   0.1725097), wk =   0.0025641
        k(  173) = (   0.2721460   0.5669800   0.3450193), wk =   0.0025641
        k(  174) = (   0.3215717   0.5669800   0.5175290), wk =   0.0025641
        k(  175) = (   0.3709975   0.5669800   0.6900387), wk =   0.0025641
        k(  176) = (   0.4204232   0.5669800   0.8625483), wk =   0.0025641
        k(  177) = (   0.4698489   0.5669800   1.0350580), wk =   0.0025641
        k(  178) = (  -0.1232600   0.5669800  -1.0350580), wk =   0.0025641
        k(  179) = (  -0.0738343   0.5669800  -0.8625483), wk =   0.0025641
        k(  180) = (  -0.0244085   0.5669800  -0.6900387), wk =   0.0025641
        k(  181) = (   0.0250172   0.5669800  -0.5175290), wk =   0.0025641
        k(  182) = (   0.0744430   0.5669800  -0.3450193), wk =   0.0025641
        k(  183) = (   0.1238687   0.5669800  -0.1725097), wk =   0.0025641
        k(  184) = (   0.1732684   0.7560784   0.0000000), wk =   0.0025641
        k(  185) = (   0.2226942   0.7560784   0.1725097), wk =   0.0025641
        k(  186) = (   0.2721199   0.7560784   0.3450193), wk =   0.0025641
        k(  187) = (   0.3215457   0.7560784   0.5175290), wk =   0.0025641
        k(  188) = (   0.3709714   0.7560784   0.6900387), wk =   0.0025641
        k(  189) = (   0.4203972   0.7560784   0.8625483), wk =   0.0025641
        k(  190) = (   0.4698229   0.7560784   1.0350580), wk =   0.0025641
        k(  191) = (  -0.1232861   0.7560784  -1.0350580), wk =   0.0025641
        k(  192) = (  -0.0738603   0.7560784  -0.8625483), wk =   0.0025641
        k(  193) = (  -0.0244346   0.7560784  -0.6900387), wk =   0.0025641
        k(  194) = (   0.0249912   0.7560784  -0.5175290), wk =   0.0025641
        k(  195) = (   0.0744169   0.7560784  -0.3450193), wk =   0.0025641
        k(  196) = (   0.1238427   0.7560784  -0.1725097), wk =   0.0025641
        k(  197) = (   0.1732424   0.9451768   0.0000000), wk =   0.0025641
        k(  198) = (   0.2226682   0.9451768   0.1725097), wk =   0.0025641
        k(  199) = (   0.2720939   0.9451768   0.3450193), wk =   0.0025641
        k(  200) = (   0.3215197   0.9451768   0.5175290), wk =   0.0025641
        k(  201) = (   0.3709454   0.9451768   0.6900387), wk =   0.0025641
        k(  202) = (   0.4203712   0.9451768   0.8625483), wk =   0.0025641
        k(  203) = (   0.4697969   0.9451768   1.0350580), wk =   0.0025641
        k(  204) = (  -0.1233121   0.9451768  -1.0350580), wk =   0.0025641
        k(  205) = (  -0.0738863   0.9451768  -0.8625483), wk =   0.0025641
        k(  206) = (  -0.0244606   0.9451768  -0.6900387), wk =   0.0025641
        k(  207) = (   0.0249652   0.9451768  -0.5175290), wk =   0.0025641
        k(  208) = (   0.0743909   0.9451768  -0.3450193), wk =   0.0025641
        k(  209) = (   0.1238167   0.9451768  -0.1725097), wk =   0.0025641
        k(  210) = (   0.1732164   1.1342752   0.0000000), wk =   0.0025641
        k(  211) = (   0.2226422   1.1342752   0.1725097), wk =   0.0025641
        k(  212) = (   0.2720679   1.1342752   0.3450193), wk =   0.0025641
        k(  213) = (   0.3214937   1.1342752   0.5175290), wk =   0.0025641
        k(  214) = (   0.3709194   1.1342751   0.6900387), wk =   0.0025641
        k(  215) = (   0.4203452   1.1342751   0.8625483), wk =   0.0025641
        k(  216) = (   0.4697709   1.1342751   1.0350580), wk =   0.0025641
        k(  217) = (  -0.1233381   1.1342752  -1.0350580), wk =   0.0025641
        k(  218) = (  -0.0739123   1.1342752  -0.8625483), wk =   0.0025641
        k(  219) = (  -0.0244866   1.1342752  -0.6900387), wk =   0.0025641
        k(  220) = (   0.0249392   1.1342752  -0.5175290), wk =   0.0025641
        k(  221) = (   0.0743649   1.1342752  -0.3450193), wk =   0.0025641
        k(  222) = (   0.1237907   1.1342752  -0.1725097), wk =   0.0025641
        k(  223) = (   0.1731904   1.3233736   0.0000000), wk =   0.0025641
        k(  224) = (   0.2226162   1.3233736   0.1725097), wk =   0.0025641
        k(  225) = (   0.2720419   1.3233735   0.3450193), wk =   0.0025641
        k(  226) = (   0.3214677   1.3233735   0.5175290), wk =   0.0025641
        k(  227) = (   0.3708934   1.3233735   0.6900387), wk =   0.0025641
        k(  228) = (   0.4203192   1.3233735   0.8625483), wk =   0.0025641
        k(  229) = (   0.4697449   1.3233735   1.0350580), wk =   0.0025641
        k(  230) = (  -0.1233641   1.3233736  -1.0350580), wk =   0.0025641
        k(  231) = (  -0.0739383   1.3233736  -0.8625483), wk =   0.0025641
        k(  232) = (  -0.0245126   1.3233736  -0.6900387), wk =   0.0025641
        k(  233) = (   0.0249132   1.3233736  -0.5175290), wk =   0.0025641
        k(  234) = (   0.0743389   1.3233736  -0.3450193), wk =   0.0025641
        k(  235) = (   0.1237647   1.3233736  -0.1725097), wk =   0.0025641
        k(  236) = (   0.1731644   1.5124719   0.0000000), wk =   0.0025641
        k(  237) = (   0.2225902   1.5124719   0.1725097), wk =   0.0025641
        k(  238) = (   0.2720159   1.5124719   0.3450193), wk =   0.0025641
        k(  239) = (   0.3214417   1.5124719   0.5175290), wk =   0.0025641
        k(  240) = (   0.3708674   1.5124719   0.6900387), wk =   0.0025641
        k(  241) = (   0.4202932   1.5124719   0.8625483), wk =   0.0025641
        k(  242) = (   0.4697189   1.5124719   1.0350580), wk =   0.0025641
        k(  243) = (  -0.1233901   1.5124720  -1.0350580), wk =   0.0025641
        k(  244) = (  -0.0739643   1.5124720  -0.8625483), wk =   0.0025641
        k(  245) = (  -0.0245386   1.5124720  -0.6900387), wk =   0.0025641
        k(  246) = (   0.0248872   1.5124720  -0.5175290), wk =   0.0025641
        k(  247) = (   0.0743129   1.5124720  -0.3450193), wk =   0.0025641
        k(  248) = (   0.1237387   1.5124719  -0.1725097), wk =   0.0025641
        k(  249) = (   0.1731384   1.7015703   0.0000000), wk =   0.0025641
        k(  250) = (   0.2225642   1.7015703   0.1725097), wk =   0.0025641
        k(  251) = (   0.2719899   1.7015703   0.3450193), wk =   0.0025641
        k(  252) = (   0.3214157   1.7015703   0.5175290), wk =   0.0025641
        k(  253) = (   0.3708414   1.7015703   0.6900387), wk =   0.0025641
        k(  254) = (   0.4202672   1.7015703   0.8625483), wk =   0.0025641
        k(  255) = (   0.4696929   1.7015703   1.0350580), wk =   0.0025641
        k(  256) = (  -0.1234161   1.7015704  -1.0350580), wk =   0.0025641
        k(  257) = (  -0.0739903   1.7015704  -0.8625483), wk =   0.0025641
        k(  258) = (  -0.0245646   1.7015703  -0.6900387), wk =   0.0025641
        k(  259) = (   0.0248612   1.7015703  -0.5175290), wk =   0.0025641
        k(  260) = (   0.0742869   1.7015703  -0.3450193), wk =   0.0025641
        k(  261) = (   0.1237127   1.7015703  -0.1725097), wk =   0.0025641
        k(  262) = (   0.1736326  -1.8912990   0.0000000), wk =   0.0025641
        k(  263) = (   0.2230583  -1.8912990   0.1725097), wk =   0.0025641
        k(  264) = (   0.2724841  -1.8912990   0.3450193), wk =   0.0025641
        k(  265) = (   0.3219098  -1.8912990   0.5175290), wk =   0.0025641
        k(  266) = (   0.3713355  -1.8912990   0.6900387), wk =   0.0025641
        k(  267) = (   0.4207613  -1.8912991   0.8625483), wk =   0.0025641
        k(  268) = (   0.4701870  -1.8912991   1.0350580), wk =   0.0025641
        k(  269) = (  -0.1229219  -1.8912990  -1.0350580), wk =   0.0025641
        k(  270) = (  -0.0734962  -1.8912990  -0.8625483), wk =   0.0025641
        k(  271) = (  -0.0240704  -1.8912990  -0.6900387), wk =   0.0025641
        k(  272) = (   0.0253553  -1.8912990  -0.5175290), wk =   0.0025641
        k(  273) = (   0.0747811  -1.8912990  -0.3450193), wk =   0.0025641
        k(  274) = (   0.1242068  -1.8912990  -0.1725097), wk =   0.0025641
        k(  275) = (   0.1736065  -1.7022006   0.0000000), wk =   0.0025641
        k(  276) = (   0.2230323  -1.7022006   0.1725097), wk =   0.0025641
        k(  277) = (   0.2724580  -1.7022006   0.3450193), wk =   0.0025641
        k(  278) = (   0.3218838  -1.7022007   0.5175290), wk =   0.0025641
        k(  279) = (   0.3713095  -1.7022007   0.6900387), wk =   0.0025641
        k(  280) = (   0.4207353  -1.7022007   0.8625483), wk =   0.0025641
        k(  281) = (   0.4701610  -1.7022007   1.0350580), wk =   0.0025641
        k(  282) = (  -0.1229480  -1.7022006  -1.0350580), wk =   0.0025641
        k(  283) = (  -0.0735222  -1.7022006  -0.8625483), wk =   0.0025641
        k(  284) = (  -0.0240965  -1.7022006  -0.6900387), wk =   0.0025641
        k(  285) = (   0.0253293  -1.7022006  -0.5175290), wk =   0.0025641
        k(  286) = (   0.0747550  -1.7022006  -0.3450193), wk =   0.0025641
        k(  287) = (   0.1241808  -1.7022006  -0.1725097), wk =   0.0025641
        k(  288) = (   0.1735805  -1.5131023   0.0000000), wk =   0.0025641
        k(  289) = (   0.2230063  -1.5131023   0.1725097), wk =   0.0025641
        k(  290) = (   0.2724320  -1.5131023   0.3450193), wk =   0.0025641
        k(  291) = (   0.3218578  -1.5131023   0.5175290), wk =   0.0025641
        k(  292) = (   0.3712835  -1.5131023   0.6900387), wk =   0.0025641
        k(  293) = (   0.4207093  -1.5131023   0.8625483), wk =   0.0025641
        k(  294) = (   0.4701350  -1.5131023   1.0350580), wk =   0.0025641
        k(  295) = (  -0.1229740  -1.5131022  -1.0350580), wk =   0.0025641
        k(  296) = (  -0.0735482  -1.5131022  -0.8625483), wk =   0.0025641
        k(  297) = (  -0.0241225  -1.5131022  -0.6900387), wk =   0.0025641
        k(  298) = (   0.0253033  -1.5131022  -0.5175290), wk =   0.0025641
        k(  299) = (   0.0747290  -1.5131022  -0.3450193), wk =   0.0025641
        k(  300) = (   0.1241548  -1.5131022  -0.1725097), wk =   0.0025641
        k(  301) = (   0.1735545  -1.3240039   0.0000000), wk =   0.0025641
        k(  302) = (   0.2229803  -1.3240039   0.1725097), wk =   0.0025641
        k(  303) = (   0.2724060  -1.3240039   0.3450193), wk =   0.0025641
        k(  304) = (   0.3218318  -1.3240039   0.5175290), wk =   0.0025641
        k(  305) = (   0.3712575  -1.3240039   0.6900387), wk =   0.0025641
        k(  306) = (   0.4206833  -1.3240039   0.8625483), wk =   0.0025641
        k(  307) = (   0.4701090  -1.3240039   1.0350580), wk =   0.0025641
        k(  308) = (  -0.1230000  -1.3240038  -1.0350580), wk =   0.0025641
        k(  309) = (  -0.0735742  -1.3240038  -0.8625483), wk =   0.0025641
        k(  310) = (  -0.0241485  -1.3240038  -0.6900387), wk =   0.0025641
        k(  311) = (   0.0252773  -1.3240038  -0.5175290), wk =   0.0025641
        k(  312) = (   0.0747030  -1.3240039  -0.3450193), wk =   0.0025641
        k(  313) = (   0.1241288  -1.3240039  -0.1725097), wk =   0.0025641
        k(  314) = (   0.1735285  -1.1349055   0.0000000), wk =   0.0025641
        k(  315) = (   0.2229543  -1.1349055   0.1725097), wk =   0.0025641
        k(  316) = (   0.2723800  -1.1349055   0.3450193), wk =   0.0025641
        k(  317) = (   0.3218058  -1.1349055   0.5175290), wk =   0.0025641
        k(  318) = (   0.3712315  -1.1349055   0.6900387), wk =   0.0025641
        k(  319) = (   0.4206573  -1.1349055   0.8625483), wk =   0.0025641
        k(  320) = (   0.4700830  -1.1349055   1.0350580), wk =   0.0025641
        k(  321) = (  -0.1230260  -1.1349054  -1.0350580), wk =   0.0025641
        k(  322) = (  -0.0736002  -1.1349055  -0.8625483), wk =   0.0025641
        k(  323) = (  -0.0241745  -1.1349055  -0.6900387), wk =   0.0025641
        k(  324) = (   0.0252513  -1.1349055  -0.5175290), wk =   0.0025641
        k(  325) = (   0.0746770  -1.1349055  -0.3450193), wk =   0.0025641
        k(  326) = (   0.1241028  -1.1349055  -0.1725097), wk =   0.0025641
        k(  327) = (   0.1735025  -0.9458071   0.0000000), wk =   0.0025641
        k(  328) = (   0.2229283  -0.9458071   0.1725097), wk =   0.0025641
        k(  329) = (   0.2723540  -0.9458071   0.3450193), wk =   0.0025641
        k(  330) = (   0.3217798  -0.9458071   0.5175290), wk =   0.0025641
        k(  331) = (   0.3712055  -0.9458071   0.6900387), wk =   0.0025641
        k(  332) = (   0.4206313  -0.9458071   0.8625483), wk =   0.0025641
        k(  333) = (   0.4700570  -0.9458071   1.0350580), wk =   0.0025641
        k(  334) = (  -0.1230520  -0.9458071  -1.0350580), wk =   0.0025641
        k(  335) = (  -0.0736262  -0.9458071  -0.8625483), wk =   0.0025641
        k(  336) = (  -0.0242005  -0.9458071  -0.6900387), wk =   0.0025641
        k(  337) = (   0.0252253  -0.9458071  -0.5175290), wk =   0.0025641
        k(  338) = (   0.0746510  -0.9458071  -0.3450193), wk =   0.0025641
        k(  339) = (   0.1240768  -0.9458071  -0.1725097), wk =   0.0025641
        k(  340) = (   0.1734765  -0.7567087   0.0000000), wk =   0.0025641
        k(  341) = (   0.2229023  -0.7567087   0.1725097), wk =   0.0025641
        k(  342) = (   0.2723280  -0.7567087   0.3450193), wk =   0.0025641
        k(  343) = (   0.3217538  -0.7567087   0.5175290), wk =   0.0025641
        k(  344) = (   0.3711795  -0.7567087   0.6900387), wk =   0.0025641
        k(  345) = (   0.4206053  -0.7567087   0.8625483), wk =   0.0025641
        k(  346) = (   0.4700310  -0.7567087   1.0350580), wk =   0.0025641
        k(  347) = (  -0.1230780  -0.7567087  -1.0350580), wk =   0.0025641
        k(  348) = (  -0.0736522  -0.7567087  -0.8625483), wk =   0.0025641
        k(  349) = (  -0.0242265  -0.7567087  -0.6900387), wk =   0.0025641
        k(  350) = (   0.0251993  -0.7567087  -0.5175290), wk =   0.0025641
        k(  351) = (   0.0746250  -0.7567087  -0.3450193), wk =   0.0025641
        k(  352) = (   0.1240508  -0.7567087  -0.1725097), wk =   0.0025641
        k(  353) = (   0.1734505  -0.5676103   0.0000000), wk =   0.0025641
        k(  354) = (   0.2228762  -0.5676103   0.1725097), wk =   0.0025641
        k(  355) = (   0.2723020  -0.5676103   0.3450193), wk =   0.0025641
        k(  356) = (   0.3217277  -0.5676103   0.5175290), wk =   0.0025641
        k(  357) = (   0.3711535  -0.5676103   0.6900387), wk =   0.0025641
        k(  358) = (   0.4205792  -0.5676103   0.8625483), wk =   0.0025641
        k(  359) = (   0.4700050  -0.5676103   1.0350580), wk =   0.0025641
        k(  360) = (  -0.1231040  -0.5676103  -1.0350580), wk =   0.0025641
        k(  361) = (  -0.0736782  -0.5676103  -0.8625483), wk =   0.0025641
        k(  362) = (  -0.0242525  -0.5676103  -0.6900387), wk =   0.0025641
        k(  363) = (   0.0251733  -0.5676103  -0.5175290), wk =   0.0025641
        k(  364) = (   0.0745990  -0.5676103  -0.3450193), wk =   0.0025641
        k(  365) = (   0.1240247  -0.5676103  -0.1725097), wk =   0.0025641
        k(  366) = (   0.1734245  -0.3785119   0.0000000), wk =   0.0025641
        k(  367) = (   0.2228502  -0.3785119   0.1725097), wk =   0.0025641
        k(  368) = (   0.2722760  -0.3785119   0.3450193), wk =   0.0025641
        k(  369) = (   0.3217017  -0.3785119   0.5175290), wk =   0.0025641
        k(  370) = (   0.3711275  -0.3785119   0.6900387), wk =   0.0025641
        k(  371) = (   0.4205532  -0.3785120   0.8625483), wk =   0.0025641
        k(  372) = (   0.4699790  -0.3785120   1.0350580), wk =   0.0025641
        k(  373) = (  -0.1231300  -0.3785119  -1.0350580), wk =   0.0025641
        k(  374) = (  -0.0737043  -0.3785119  -0.8625483), wk =   0.0025641
        k(  375) = (  -0.0242785  -0.3785119  -0.6900387), wk =   0.0025641
        k(  376) = (   0.0251472  -0.3785119  -0.5175290), wk =   0.0025641
        k(  377) = (   0.0745730  -0.3785119  -0.3450193), wk =   0.0025641
        k(  378) = (   0.1239987  -0.3785119  -0.1725097), wk =   0.0025641
        k(  379) = (   0.1733985  -0.1894135   0.0000000), wk =   0.0025641
        k(  380) = (   0.2228242  -0.1894135   0.1725097), wk =   0.0025641
        k(  381) = (   0.2722500  -0.1894136   0.3450193), wk =   0.0025641
        k(  382) = (   0.3216757  -0.1894136   0.5175290), wk =   0.0025641
        k(  383) = (   0.3711015  -0.1894136   0.6900387), wk =   0.0025641
        k(  384) = (   0.4205272  -0.1894136   0.8625483), wk =   0.0025641
        k(  385) = (   0.4699530  -0.1894136   1.0350580), wk =   0.0025641
        k(  386) = (  -0.1231560  -0.1894135  -1.0350580), wk =   0.0025641
        k(  387) = (  -0.0737303  -0.1894135  -0.8625483), wk =   0.0025641
        k(  388) = (  -0.0243045  -0.1894135  -0.6900387), wk =   0.0025641
        k(  389) = (   0.0251212  -0.1894135  -0.5175290), wk =   0.0025641
        k(  390) = (   0.0745470  -0.1894135  -0.3450193), wk =   0.0025641
        k(  391) = (   0.1239727  -0.1894135  -0.1725097), wk =   0.0025641
        k(  392) = (   0.3467450  -0.0006303   0.0000000), wk =   0.0025641
        k(  393) = (   0.3961707  -0.0006303   0.1725097), wk =   0.0025641
        k(  394) = (   0.4455965  -0.0006303   0.3450193), wk =   0.0025641
        k(  395) = (   0.4950222  -0.0006303   0.5175290), wk =   0.0025641
        k(  396) = (   0.5444479  -0.0006303   0.6900387), wk =   0.0025641
        k(  397) = (   0.5938737  -0.0006303   0.8625483), wk =   0.0025641
        k(  398) = (   0.6432994  -0.0006303   1.0350580), wk =   0.0025641
        k(  399) = (   0.0501905  -0.0006303  -1.0350580), wk =   0.0025641
        k(  400) = (   0.0996162  -0.0006303  -0.8625483), wk =   0.0025641
        k(  401) = (   0.1490420  -0.0006303  -0.6900387), wk =   0.0025641
        k(  402) = (   0.1984677  -0.0006303  -0.5175290), wk =   0.0025641
        k(  403) = (   0.2478935  -0.0006303  -0.3450193), wk =   0.0025641
        k(  404) = (   0.2973192  -0.0006303  -0.1725097), wk =   0.0025641
        k(  405) = (   0.3467189   0.1884681   0.0000000), wk =   0.0025641
        k(  406) = (   0.3961447   0.1884681   0.1725097), wk =   0.0025641
        k(  407) = (   0.4455704   0.1884681   0.3450193), wk =   0.0025641
        k(  408) = (   0.4949962   0.1884681   0.5175290), wk =   0.0025641
        k(  409) = (   0.5444219   0.1884681   0.6900387), wk =   0.0025641
        k(  410) = (   0.5938477   0.1884681   0.8625483), wk =   0.0025641
        k(  411) = (   0.6432734   0.1884680   1.0350580), wk =   0.0025641
        k(  412) = (   0.0501644   0.1884681  -1.0350580), wk =   0.0025641
        k(  413) = (   0.0995902   0.1884681  -0.8625483), wk =   0.0025641
        k(  414) = (   0.1490159   0.1884681  -0.6900387), wk =   0.0025641
        k(  415) = (   0.1984417   0.1884681  -0.5175290), wk =   0.0025641
        k(  416) = (   0.2478674   0.1884681  -0.3450193), wk =   0.0025641
        k(  417) = (   0.2972932   0.1884681  -0.1725097), wk =   0.0025641
        k(  418) = (   0.3466929   0.3775665   0.0000000), wk =   0.0025641
        k(  419) = (   0.3961187   0.3775665   0.1725097), wk =   0.0025641
        k(  420) = (   0.4455444   0.3775665   0.3450193), wk =   0.0025641
        k(  421) = (   0.4949702   0.3775664   0.5175290), wk =   0.0025641
        k(  422) = (   0.5443959   0.3775664   0.6900387), wk =   0.0025641
        k(  423) = (   0.5938217   0.3775664   0.8625483), wk =   0.0025641
        k(  424) = (   0.6432474   0.3775664   1.0350580), wk =   0.0025641
        k(  425) = (   0.0501384   0.3775665  -1.0350580), wk =   0.0025641
        k(  426) = (   0.0995642   0.3775665  -0.8625483), wk =   0.0025641
        k(  427) = (   0.1489899   0.3775665  -0.6900387), wk =   0.0025641
        k(  428) = (   0.1984157   0.3775665  -0.5175290), wk =   0.0025641
        k(  429) = (   0.2478414   0.3775665  -0.3450193), wk =   0.0025641
        k(  430) = (   0.2972672   0.3775665  -0.1725097), wk =   0.0025641
        k(  431) = (   0.3466669   0.5666649   0.0000000), wk =   0.0025641
        k(  432) = (   0.3960927   0.5666648   0.1725097), wk =   0.0025641
        k(  433) = (   0.4455184   0.5666648   0.3450193), wk =   0.0025641
        k(  434) = (   0.4949442   0.5666648   0.5175290), wk =   0.0025641
        k(  435) = (   0.5443699   0.5666648   0.6900387), wk =   0.0025641
        k(  436) = (   0.5937957   0.5666648   0.8625483), wk =   0.0025641
        k(  437) = (   0.6432214   0.5666648   1.0350580), wk =   0.0025641
        k(  438) = (   0.0501124   0.5666649  -1.0350580), wk =   0.0025641
        k(  439) = (   0.0995382   0.5666649  -0.8625483), wk =   0.0025641
        k(  440) = (   0.1489639   0.5666649  -0.6900387), wk =   0.0025641
        k(  441) = (   0.1983897   0.5666649  -0.5175290), wk =   0.0025641
        k(  442) = (   0.2478154   0.5666649  -0.3450193), wk =   0.0025641
        k(  443) = (   0.2972412   0.5666649  -0.1725097), wk =   0.0025641
        k(  444) = (   0.3466409   0.7557632   0.0000000), wk =   0.0025641
        k(  445) = (   0.3960667   0.7557632   0.1725097), wk =   0.0025641
        k(  446) = (   0.4454924   0.7557632   0.3450193), wk =   0.0025641
        k(  447) = (   0.4949182   0.7557632   0.5175290), wk =   0.0025641
        k(  448) = (   0.5443439   0.7557632   0.6900387), wk =   0.0025641
        k(  449) = (   0.5937697   0.7557632   0.8625483), wk =   0.0025641
        k(  450) = (   0.6431954   0.7557632   1.0350580), wk =   0.0025641
        k(  451) = (   0.0500864   0.7557633  -1.0350580), wk =   0.0025641
        k(  452) = (   0.0995122   0.7557633  -0.8625483), wk =   0.0025641
        k(  453) = (   0.1489379   0.7557633  -0.6900387), wk =   0.0025641
        k(  454) = (   0.1983637   0.7557633  -0.5175290), wk =   0.0025641
        k(  455) = (   0.2477894   0.7557632  -0.3450193), wk =   0.0025641
        k(  456) = (   0.2972152   0.7557632  -0.1725097), wk =   0.0025641
        k(  457) = (   0.3466149   0.9448616   0.0000000), wk =   0.0025641
        k(  458) = (   0.3960407   0.9448616   0.1725097), wk =   0.0025641
        k(  459) = (   0.4454664   0.9448616   0.3450193), wk =   0.0025641
        k(  460) = (   0.4948922   0.9448616   0.5175290), wk =   0.0025641
        k(  461) = (   0.5443179   0.9448616   0.6900387), wk =   0.0025641
        k(  462) = (   0.5937437   0.9448616   0.8625483), wk =   0.0025641
        k(  463) = (   0.6431694   0.9448616   1.0350580), wk =   0.0025641
        k(  464) = (   0.0500604   0.9448617  -1.0350580), wk =   0.0025641
        k(  465) = (   0.0994862   0.9448617  -0.8625483), wk =   0.0025641
        k(  466) = (   0.1489119   0.9448616  -0.6900387), wk =   0.0025641
        k(  467) = (   0.1983377   0.9448616  -0.5175290), wk =   0.0025641
        k(  468) = (   0.2477634   0.9448616  -0.3450193), wk =   0.0025641
        k(  469) = (   0.2971892   0.9448616  -0.1725097), wk =   0.0025641
        k(  470) = (   0.3465889   1.1339600   0.0000000), wk =   0.0025641
        k(  471) = (   0.3960147   1.1339600   0.1725097), wk =   0.0025641
        k(  472) = (   0.4454404   1.1339600   0.3450193), wk =   0.0025641
        k(  473) = (   0.4948662   1.1339600   0.5175290), wk =   0.0025641
        k(  474) = (   0.5442919   1.1339600   0.6900387), wk =   0.0025641
        k(  475) = (   0.5937177   1.1339600   0.8625483), wk =   0.0025641
        k(  476) = (   0.6431434   1.1339600   1.0350580), wk =   0.0025641
        k(  477) = (   0.0500344   1.1339600  -1.0350580), wk =   0.0025641
        k(  478) = (   0.0994602   1.1339600  -0.8625483), wk =   0.0025641
        k(  479) = (   0.1488859   1.1339600  -0.6900387), wk =   0.0025641
        k(  480) = (   0.1983117   1.1339600  -0.5175290), wk =   0.0025641
        k(  481) = (   0.2477374   1.1339600  -0.3450193), wk =   0.0025641
        k(  482) = (   0.2971632   1.1339600  -0.1725097), wk =   0.0025641
        k(  483) = (   0.3465629   1.3230584   0.0000000), wk =   0.0025641
        k(  484) = (   0.3959886   1.3230584   0.1725097), wk =   0.0025641
        k(  485) = (   0.4454144   1.3230584   0.3450193), wk =   0.0025641
        k(  486) = (   0.4948401   1.3230584   0.5175290), wk =   0.0025641
        k(  487) = (   0.5442659   1.3230584   0.6900387), wk =   0.0025641
        k(  488) = (   0.5936916   1.3230584   0.8625483), wk =   0.0025641
        k(  489) = (   0.6431174   1.3230584   1.0350580), wk =   0.0025641
        k(  490) = (   0.0500084   1.3230584  -1.0350580), wk =   0.0025641
        k(  491) = (   0.0994342   1.3230584  -0.8625483), wk =   0.0025641
        k(  492) = (   0.1488599   1.3230584  -0.6900387), wk =   0.0025641
        k(  493) = (   0.1982857   1.3230584  -0.5175290), wk =   0.0025641
        k(  494) = (   0.2477114   1.3230584  -0.3450193), wk =   0.0025641
        k(  495) = (   0.2971371   1.3230584  -0.1725097), wk =   0.0025641
        k(  496) = (   0.3465369   1.5121568   0.0000000), wk =   0.0025641
        k(  497) = (   0.3959626   1.5121568   0.1725097), wk =   0.0025641
        k(  498) = (   0.4453884   1.5121568   0.3450193), wk =   0.0025641
        k(  499) = (   0.4948141   1.5121568   0.5175290), wk =   0.0025641
        k(  500) = (   0.5442399   1.5121568   0.6900387), wk =   0.0025641
        k(  501) = (   0.5936656   1.5121568   0.8625483), wk =   0.0025641
        k(  502) = (   0.6430914   1.5121568   1.0350580), wk =   0.0025641
        k(  503) = (   0.0499824   1.5121568  -1.0350580), wk =   0.0025641
        k(  504) = (   0.0994081   1.5121568  -0.8625483), wk =   0.0025641
        k(  505) = (   0.1488339   1.5121568  -0.6900387), wk =   0.0025641
        k(  506) = (   0.1982596   1.5121568  -0.5175290), wk =   0.0025641
        k(  507) = (   0.2476854   1.5121568  -0.3450193), wk =   0.0025641
        k(  508) = (   0.2971111   1.5121568  -0.1725097), wk =   0.0025641
        k(  509) = (   0.3465109   1.7012552   0.0000000), wk =   0.0025641
        k(  510) = (   0.3959366   1.7012552   0.1725097), wk =   0.0025641
        k(  511) = (   0.4453624   1.7012552   0.3450193), wk =   0.0025641
        k(  512) = (   0.4947881   1.7012552   0.5175290), wk =   0.0025641
        k(  513) = (   0.5442139   1.7012552   0.6900387), wk =   0.0025641
        k(  514) = (   0.5936396   1.7012551   0.8625483), wk =   0.0025641
        k(  515) = (   0.6430654   1.7012551   1.0350580), wk =   0.0025641
        k(  516) = (   0.0499564   1.7012552  -1.0350580), wk =   0.0025641
        k(  517) = (   0.0993821   1.7012552  -0.8625483), wk =   0.0025641
        k(  518) = (   0.1488079   1.7012552  -0.6900387), wk =   0.0025641
        k(  519) = (   0.1982336   1.7012552  -0.5175290), wk =   0.0025641
        k(  520) = (   0.2476594   1.7012552  -0.3450193), wk =   0.0025641
        k(  521) = (   0.2970851   1.7012552  -0.1725097), wk =   0.0025641
        k(  522) = (   0.3470050  -1.8916142   0.0000000), wk =   0.0025641
        k(  523) = (   0.3964308  -1.8916142   0.1725097), wk =   0.0025641
        k(  524) = (   0.4458565  -1.8916142   0.3450193), wk =   0.0025641
        k(  525) = (   0.4952823  -1.8916142   0.5175290), wk =   0.0025641
        k(  526) = (   0.5447080  -1.8916142   0.6900387), wk =   0.0025641
        k(  527) = (   0.5941338  -1.8916142   0.8625483), wk =   0.0025641
        k(  528) = (   0.6435595  -1.8916142   1.0350580), wk =   0.0025641
        k(  529) = (   0.0504505  -1.8916141  -1.0350580), wk =   0.0025641
        k(  530) = (   0.0998763  -1.8916142  -0.8625483), wk =   0.0025641
        k(  531) = (   0.1493020  -1.8916142  -0.6900387), wk =   0.0025641
        k(  532) = (   0.1987278  -1.8916142  -0.5175290), wk =   0.0025641
        k(  533) = (   0.2481535  -1.8916142  -0.3450193), wk =   0.0025641
        k(  534) = (   0.2975793  -1.8916142  -0.1725097), wk =   0.0025641
        k(  535) = (   0.3469790  -1.7025158   0.0000000), wk =   0.0025641
        k(  536) = (   0.3964048  -1.7025158   0.1725097), wk =   0.0025641
        k(  537) = (   0.4458305  -1.7025158   0.3450193), wk =   0.0025641
        k(  538) = (   0.4952563  -1.7025158   0.5175290), wk =   0.0025641
        k(  539) = (   0.5446820  -1.7025158   0.6900387), wk =   0.0025641
        k(  540) = (   0.5941078  -1.7025158   0.8625483), wk =   0.0025641
        k(  541) = (   0.6435335  -1.7025158   1.0350580), wk =   0.0025641
        k(  542) = (   0.0504245  -1.7025158  -1.0350580), wk =   0.0025641
        k(  543) = (   0.0998503  -1.7025158  -0.8625483), wk =   0.0025641
        k(  544) = (   0.1492760  -1.7025158  -0.6900387), wk =   0.0025641
        k(  545) = (   0.1987018  -1.7025158  -0.5175290), wk =   0.0025641
        k(  546) = (   0.2481275  -1.7025158  -0.3450193), wk =   0.0025641
        k(  547) = (   0.2975533  -1.7025158  -0.1725097), wk =   0.0025641
        k(  548) = (   0.3469530  -1.5134174   0.0000000), wk =   0.0025641
        k(  549) = (   0.3963788  -1.5134174   0.1725097), wk =   0.0025641
        k(  550) = (   0.4458045  -1.5134174   0.3450193), wk =   0.0025641
        k(  551) = (   0.4952303  -1.5134174   0.5175290), wk =   0.0025641
        k(  552) = (   0.5446560  -1.5134174   0.6900387), wk =   0.0025641
        k(  553) = (   0.5940818  -1.5134174   0.8625483), wk =   0.0025641
        k(  554) = (   0.6435075  -1.5134174   1.0350580), wk =   0.0025641
        k(  555) = (   0.0503985  -1.5134174  -1.0350580), wk =   0.0025641
        k(  556) = (   0.0998243  -1.5134174  -0.8625483), wk =   0.0025641
        k(  557) = (   0.1492500  -1.5134174  -0.6900387), wk =   0.0025641
        k(  558) = (   0.1986758  -1.5134174  -0.5175290), wk =   0.0025641
        k(  559) = (   0.2481015  -1.5134174  -0.3450193), wk =   0.0025641
        k(  560) = (   0.2975273  -1.5134174  -0.1725097), wk =   0.0025641
        k(  561) = (   0.3469270  -1.3243190   0.0000000), wk =   0.0025641
        k(  562) = (   0.3963528  -1.3243190   0.1725097), wk =   0.0025641
        k(  563) = (   0.4457785  -1.3243190   0.3450193), wk =   0.0025641
        k(  564) = (   0.4952043  -1.3243190   0.5175290), wk =   0.0025641
        k(  565) = (   0.5446300  -1.3243190   0.6900387), wk =   0.0025641
        k(  566) = (   0.5940558  -1.3243190   0.8625483), wk =   0.0025641
        k(  567) = (   0.6434815  -1.3243190   1.0350580), wk =   0.0025641
        k(  568) = (   0.0503725  -1.3243190  -1.0350580), wk =   0.0025641
        k(  569) = (   0.0997983  -1.3243190  -0.8625483), wk =   0.0025641
        k(  570) = (   0.1492240  -1.3243190  -0.6900387), wk =   0.0025641
        k(  571) = (   0.1986498  -1.3243190  -0.5175290), wk =   0.0025641
        k(  572) = (   0.2480755  -1.3243190  -0.3450193), wk =   0.0025641
        k(  573) = (   0.2975013  -1.3243190  -0.1725097), wk =   0.0025641
        k(  574) = (   0.3469010  -1.1352206   0.0000000), wk =   0.0025641
        k(  575) = (   0.3963267  -1.1352206   0.1725097), wk =   0.0025641
        k(  576) = (   0.4457525  -1.1352206   0.3450193), wk =   0.0025641
        k(  577) = (   0.4951782  -1.1352206   0.5175290), wk =   0.0025641
        k(  578) = (   0.5446040  -1.1352207   0.6900387), wk =   0.0025641
        k(  579) = (   0.5940297  -1.1352207   0.8625483), wk =   0.0025641
        k(  580) = (   0.6434555  -1.1352207   1.0350580), wk =   0.0025641
        k(  581) = (   0.0503465  -1.1352206  -1.0350580), wk =   0.0025641
        k(  582) = (   0.0997722  -1.1352206  -0.8625483), wk =   0.0025641
        k(  583) = (   0.1491980  -1.1352206  -0.6900387), wk =   0.0025641
        k(  584) = (   0.1986237  -1.1352206  -0.5175290), wk =   0.0025641
        k(  585) = (   0.2480495  -1.1352206  -0.3450193), wk =   0.0025641
        k(  586) = (   0.2974752  -1.1352206  -0.1725097), wk =   0.0025641
        k(  587) = (   0.3468750  -0.9461222   0.0000000), wk =   0.0025641
        k(  588) = (   0.3963007  -0.9461222   0.1725097), wk =   0.0025641
        k(  589) = (   0.4457265  -0.9461223   0.3450193), wk =   0.0025641
        k(  590) = (   0.4951522  -0.9461223   0.5175290), wk =   0.0025641
        k(  591) = (   0.5445780  -0.9461223   0.6900387), wk =   0.0025641
        k(  592) = (   0.5940037  -0.9461223   0.8625483), wk =   0.0025641
        k(  593) = (   0.6434295  -0.9461223   1.0350580), wk =   0.0025641
        k(  594) = (   0.0503205  -0.9461222  -1.0350580), wk =   0.0025641
        k(  595) = (   0.0997462  -0.9461222  -0.8625483), wk =   0.0025641
        k(  596) = (   0.1491720  -0.9461222  -0.6900387), wk =   0.0025641
        k(  597) = (   0.1985977  -0.9461222  -0.5175290), wk =   0.0025641
        k(  598) = (   0.2480235  -0.9461222  -0.3450193), wk =   0.0025641
        k(  599) = (   0.2974492  -0.9461222  -0.1725097), wk =   0.0025641
        k(  600) = (   0.3468490  -0.7570239   0.0000000), wk =   0.0025641
        k(  601) = (   0.3962747  -0.7570239   0.1725097), wk =   0.0025641
        k(  602) = (   0.4457005  -0.7570239   0.3450193), wk =   0.0025641
        k(  603) = (   0.4951262  -0.7570239   0.5175290), wk =   0.0025641
        k(  604) = (   0.5445520  -0.7570239   0.6900387), wk =   0.0025641
        k(  605) = (   0.5939777  -0.7570239   0.8625483), wk =   0.0025641
        k(  606) = (   0.6434035  -0.7570239   1.0350580), wk =   0.0025641
        k(  607) = (   0.0502945  -0.7570238  -1.0350580), wk =   0.0025641
        k(  608) = (   0.0997202  -0.7570238  -0.8625483), wk =   0.0025641
        k(  609) = (   0.1491460  -0.7570238  -0.6900387), wk =   0.0025641
        k(  610) = (   0.1985717  -0.7570238  -0.5175290), wk =   0.0025641
        k(  611) = (   0.2479975  -0.7570238  -0.3450193), wk =   0.0025641
        k(  612) = (   0.2974232  -0.7570239  -0.1725097), wk =   0.0025641
        k(  613) = (   0.3468230  -0.5679255   0.0000000), wk =   0.0025641
        k(  614) = (   0.3962487  -0.5679255   0.1725097), wk =   0.0025641
        k(  615) = (   0.4456745  -0.5679255   0.3450193), wk =   0.0025641
        k(  616) = (   0.4951002  -0.5679255   0.5175290), wk =   0.0025641
        k(  617) = (   0.5445260  -0.5679255   0.6900387), wk =   0.0025641
        k(  618) = (   0.5939517  -0.5679255   0.8625483), wk =   0.0025641
        k(  619) = (   0.6433775  -0.5679255   1.0350580), wk =   0.0025641
        k(  620) = (   0.0502685  -0.5679254  -1.0350580), wk =   0.0025641
        k(  621) = (   0.0996942  -0.5679254  -0.8625483), wk =   0.0025641
        k(  622) = (   0.1491200  -0.5679254  -0.6900387), wk =   0.0025641
        k(  623) = (   0.1985457  -0.5679255  -0.5175290), wk =   0.0025641
        k(  624) = (   0.2479715  -0.5679255  -0.3450193), wk =   0.0025641
        k(  625) = (   0.2973972  -0.5679255  -0.1725097), wk =   0.0025641
        k(  626) = (   0.3467970  -0.3788271   0.0000000), wk =   0.0025641
        k(  627) = (   0.3962227  -0.3788271   0.1725097), wk =   0.0025641
        k(  628) = (   0.4456485  -0.3788271   0.3450193), wk =   0.0025641
        k(  629) = (   0.4950742  -0.3788271   0.5175290), wk =   0.0025641
        k(  630) = (   0.5445000  -0.3788271   0.6900387), wk =   0.0025641
        k(  631) = (   0.5939257  -0.3788271   0.8625483), wk =   0.0025641
        k(  632) = (   0.6433515  -0.3788271   1.0350580), wk =   0.0025641
        k(  633) = (   0.0502425  -0.3788271  -1.0350580), wk =   0.0025641
        k(  634) = (   0.0996682  -0.3788271  -0.8625483), wk =   0.0025641
        k(  635) = (   0.1490940  -0.3788271  -0.6900387), wk =   0.0025641
        k(  636) = (   0.1985197  -0.3788271  -0.5175290), wk =   0.0025641
        k(  637) = (   0.2479455  -0.3788271  -0.3450193), wk =   0.0025641
        k(  638) = (   0.2973712  -0.3788271  -0.1725097), wk =   0.0025641
        k(  639) = (   0.3467710  -0.1897287   0.0000000), wk =   0.0025641
        k(  640) = (   0.3961967  -0.1897287   0.1725097), wk =   0.0025641
        k(  641) = (   0.4456225  -0.1897287   0.3450193), wk =   0.0025641
        k(  642) = (   0.4950482  -0.1897287   0.5175290), wk =   0.0025641
        k(  643) = (   0.5444740  -0.1897287   0.6900387), wk =   0.0025641
        k(  644) = (   0.5938997  -0.1897287   0.8625483), wk =   0.0025641
        k(  645) = (   0.6433255  -0.1897287   1.0350580), wk =   0.0025641
        k(  646) = (   0.0502165  -0.1897287  -1.0350580), wk =   0.0025641
        k(  647) = (   0.0996422  -0.1897287  -0.8625483), wk =   0.0025641
        k(  648) = (   0.1490680  -0.1897287  -0.6900387), wk =   0.0025641
        k(  649) = (   0.1984937  -0.1897287  -0.5175290), wk =   0.0025641
        k(  650) = (   0.2479195  -0.1897287  -0.3450193), wk =   0.0025641
        k(  651) = (   0.2973452  -0.1897287  -0.1725097), wk =   0.0025641
        k(  652) = (  -0.5201174   0.0009455   0.0000000), wk =   0.0012821
        k(  653) = (  -0.4706917   0.0009455   0.1725097), wk =   0.0025641
        k(  654) = (  -0.4212659   0.0009455   0.3450193), wk =   0.0025641
        k(  655) = (  -0.3718402   0.0009454   0.5175290), wk =   0.0025641
        k(  656) = (  -0.3224144   0.0009454   0.6900387), wk =   0.0025641
        k(  657) = (  -0.2729887   0.0009454   0.8625483), wk =   0.0025641
        k(  658) = (  -0.2235629   0.0009454   1.0350580), wk =   0.0025641
        k(  659) = (  -0.5201434   0.1900439   0.0000000), wk =   0.0025641
        k(  660) = (  -0.4707177   0.1900438   0.1725097), wk =   0.0025641
        k(  661) = (  -0.4212919   0.1900438   0.3450193), wk =   0.0025641
        k(  662) = (  -0.3718662   0.1900438   0.5175290), wk =   0.0025641
        k(  663) = (  -0.3224404   0.1900438   0.6900387), wk =   0.0025641
        k(  664) = (  -0.2730147   0.1900438   0.8625483), wk =   0.0025641
        k(  665) = (  -0.2235889   0.1900438   1.0350580), wk =   0.0025641
        k(  666) = (  -0.8166979   0.1900439  -1.0350580), wk =   0.0025641
        k(  667) = (  -0.7672722   0.1900439  -0.8625483), wk =   0.0025641
        k(  668) = (  -0.7178464   0.1900439  -0.6900387), wk =   0.0025641
        k(  669) = (  -0.6684207   0.1900439  -0.5175290), wk =   0.0025641
        k(  670) = (  -0.6189949   0.1900439  -0.3450193), wk =   0.0025641
        k(  671) = (  -0.5695692   0.1900439  -0.1725097), wk =   0.0025641
        k(  672) = (  -0.5201694   0.3791422   0.0000000), wk =   0.0025641
        k(  673) = (  -0.4707437   0.3791422   0.1725097), wk =   0.0025641
        k(  674) = (  -0.4213179   0.3791422   0.3450193), wk =   0.0025641
        k(  675) = (  -0.3718922   0.3791422   0.5175290), wk =   0.0025641
        k(  676) = (  -0.3224664   0.3791422   0.6900387), wk =   0.0025641
        k(  677) = (  -0.2730407   0.3791422   0.8625483), wk =   0.0025641
        k(  678) = (  -0.2236149   0.3791422   1.0350580), wk =   0.0025641
        k(  679) = (  -0.8167239   0.3791423  -1.0350580), wk =   0.0025641
        k(  680) = (  -0.7672982   0.3791423  -0.8625483), wk =   0.0025641
        k(  681) = (  -0.7178724   0.3791423  -0.6900387), wk =   0.0025641
        k(  682) = (  -0.6684467   0.3791423  -0.5175290), wk =   0.0025641
        k(  683) = (  -0.6190209   0.3791422  -0.3450193), wk =   0.0025641
        k(  684) = (  -0.5695952   0.3791422  -0.1725097), wk =   0.0025641
        k(  685) = (  -0.5201955   0.5682406   0.0000000), wk =   0.0025641
        k(  686) = (  -0.4707697   0.5682406   0.1725097), wk =   0.0025641
        k(  687) = (  -0.4213440   0.5682406   0.3450193), wk =   0.0025641
        k(  688) = (  -0.3719182   0.5682406   0.5175290), wk =   0.0025641
        k(  689) = (  -0.3224925   0.5682406   0.6900387), wk =   0.0025641
        k(  690) = (  -0.2730667   0.5682406   0.8625483), wk =   0.0025641
        k(  691) = (  -0.2236410   0.5682406   1.0350580), wk =   0.0025641
        k(  692) = (  -0.8167499   0.5682407  -1.0350580), wk =   0.0025641
        k(  693) = (  -0.7673242   0.5682407  -0.8625483), wk =   0.0025641
        k(  694) = (  -0.7178984   0.5682406  -0.6900387), wk =   0.0025641
        k(  695) = (  -0.6684727   0.5682406  -0.5175290), wk =   0.0025641
        k(  696) = (  -0.6190469   0.5682406  -0.3450193), wk =   0.0025641
        k(  697) = (  -0.5696212   0.5682406  -0.1725097), wk =   0.0025641
        k(  698) = (  -0.5202215   0.7573390   0.0000000), wk =   0.0025641
        k(  699) = (  -0.4707957   0.7573390   0.1725097), wk =   0.0025641
        k(  700) = (  -0.4213700   0.7573390   0.3450193), wk =   0.0025641
        k(  701) = (  -0.3719442   0.7573390   0.5175290), wk =   0.0025641
        k(  702) = (  -0.3225185   0.7573390   0.6900387), wk =   0.0025641
        k(  703) = (  -0.2730927   0.7573390   0.8625483), wk =   0.0025641
        k(  704) = (  -0.2236670   0.7573390   1.0350580), wk =   0.0025641
        k(  705) = (  -0.8167760   0.7573390  -1.0350580), wk =   0.0025641
        k(  706) = (  -0.7673502   0.7573390  -0.8625483), wk =   0.0025641
        k(  707) = (  -0.7179245   0.7573390  -0.6900387), wk =   0.0025641
        k(  708) = (  -0.6684987   0.7573390  -0.5175290), wk =   0.0025641
        k(  709) = (  -0.6190730   0.7573390  -0.3450193), wk =   0.0025641
        k(  710) = (  -0.5696472   0.7573390  -0.1725097), wk =   0.0025641
        k(  711) = (  -0.5202475   0.9464374   0.0000000), wk =   0.0025641
        k(  712) = (  -0.4708217   0.9464374   0.1725097), wk =   0.0025641
        k(  713) = (  -0.4213960   0.9464374   0.3450193), wk =   0.0025641
        k(  714) = (  -0.3719702   0.9464374   0.5175290), wk =   0.0025641
        k(  715) = (  -0.3225445   0.9464374   0.6900387), wk =   0.0025641
        k(  716) = (  -0.2731187   0.9464374   0.8625483), wk =   0.0025641
        k(  717) = (  -0.2236930   0.9464374   1.0350580), wk =   0.0025641
        k(  718) = (  -0.8168020   0.9464374  -1.0350580), wk =   0.0025641
        k(  719) = (  -0.7673762   0.9464374  -0.8625483), wk =   0.0025641
        k(  720) = (  -0.7179505   0.9464374  -0.6900387), wk =   0.0025641
        k(  721) = (  -0.6685247   0.9464374  -0.5175290), wk =   0.0025641
        k(  722) = (  -0.6190990   0.9464374  -0.3450193), wk =   0.0025641
        k(  723) = (  -0.5696732   0.9464374  -0.1725097), wk =   0.0025641
        k(  724) = (  -0.5202735   1.1355358   0.0000000), wk =   0.0025641
        k(  725) = (  -0.4708477   1.1355358   0.1725097), wk =   0.0025641
        k(  726) = (  -0.4214220   1.1355358   0.3450193), wk =   0.0025641
        k(  727) = (  -0.3719962   1.1355358   0.5175290), wk =   0.0025641
        k(  728) = (  -0.3225705   1.1355358   0.6900387), wk =   0.0025641
        k(  729) = (  -0.2731447   1.1355358   0.8625483), wk =   0.0025641
        k(  730) = (  -0.2237190   1.1355358   1.0350580), wk =   0.0025641
        k(  731) = (  -0.8168280   1.1355358  -1.0350580), wk =   0.0025641
        k(  732) = (  -0.7674022   1.1355358  -0.8625483), wk =   0.0025641
        k(  733) = (  -0.7179765   1.1355358  -0.6900387), wk =   0.0025641
        k(  734) = (  -0.6685507   1.1355358  -0.5175290), wk =   0.0025641
        k(  735) = (  -0.6191250   1.1355358  -0.3450193), wk =   0.0025641
        k(  736) = (  -0.5696992   1.1355358  -0.1725097), wk =   0.0025641
        k(  737) = (  -0.5202995   1.3246342   0.0000000), wk =   0.0025641
        k(  738) = (  -0.4708737   1.3246342   0.1725097), wk =   0.0025641
        k(  739) = (  -0.4214480   1.3246342   0.3450193), wk =   0.0025641
        k(  740) = (  -0.3720222   1.3246342   0.5175290), wk =   0.0025641
        k(  741) = (  -0.3225965   1.3246342   0.6900387), wk =   0.0025641
        k(  742) = (  -0.2731707   1.3246341   0.8625483), wk =   0.0025641
        k(  743) = (  -0.2237450   1.3246341   1.0350580), wk =   0.0025641
        k(  744) = (  -0.8168540   1.3246342  -1.0350580), wk =   0.0025641
        k(  745) = (  -0.7674282   1.3246342  -0.8625483), wk =   0.0025641
        k(  746) = (  -0.7180025   1.3246342  -0.6900387), wk =   0.0025641
        k(  747) = (  -0.6685767   1.3246342  -0.5175290), wk =   0.0025641
        k(  748) = (  -0.6191510   1.3246342  -0.3450193), wk =   0.0025641
        k(  749) = (  -0.5697252   1.3246342  -0.1725097), wk =   0.0025641
        k(  750) = (  -0.5203255   1.5137326   0.0000000), wk =   0.0025641
        k(  751) = (  -0.4708997   1.5137326   0.1725097), wk =   0.0025641
        k(  752) = (  -0.4214740   1.5137326   0.3450193), wk =   0.0025641
        k(  753) = (  -0.3720482   1.5137325   0.5175290), wk =   0.0025641
        k(  754) = (  -0.3226225   1.5137325   0.6900387), wk =   0.0025641
        k(  755) = (  -0.2731967   1.5137325   0.8625483), wk =   0.0025641
        k(  756) = (  -0.2237710   1.5137325   1.0350580), wk =   0.0025641
        k(  757) = (  -0.8168800   1.5137326  -1.0350580), wk =   0.0025641
        k(  758) = (  -0.7674542   1.5137326  -0.8625483), wk =   0.0025641
        k(  759) = (  -0.7180285   1.5137326  -0.6900387), wk =   0.0025641
        k(  760) = (  -0.6686027   1.5137326  -0.5175290), wk =   0.0025641
        k(  761) = (  -0.6191770   1.5137326  -0.3450193), wk =   0.0025641
        k(  762) = (  -0.5697512   1.5137326  -0.1725097), wk =   0.0025641
        k(  763) = (  -0.5203515   1.7028309   0.0000000), wk =   0.0025641
        k(  764) = (  -0.4709257   1.7028309   0.1725097), wk =   0.0025641
        k(  765) = (  -0.4215000   1.7028309   0.3450193), wk =   0.0025641
        k(  766) = (  -0.3720742   1.7028309   0.5175290), wk =   0.0025641
        k(  767) = (  -0.3226485   1.7028309   0.6900387), wk =   0.0025641
        k(  768) = (  -0.2732227   1.7028309   0.8625483), wk =   0.0025641
        k(  769) = (  -0.2237970   1.7028309   1.0350580), wk =   0.0025641
        k(  770) = (  -0.8169060   1.7028310  -1.0350580), wk =   0.0025641
        k(  771) = (  -0.7674802   1.7028310  -0.8625483), wk =   0.0025641
        k(  772) = (  -0.7180545   1.7028310  -0.6900387), wk =   0.0025641
        k(  773) = (  -0.6686287   1.7028310  -0.5175290), wk =   0.0025641
        k(  774) = (  -0.6192030   1.7028310  -0.3450193), wk =   0.0025641
        k(  775) = (  -0.5697772   1.7028310  -0.1725097), wk =   0.0025641
        k(  776) = (  -0.5198574  -1.8900384   0.0000000), wk =   0.0012821
        k(  777) = (  -0.4704316  -1.8900384   0.1725097), wk =   0.0025641
        k(  778) = (  -0.4210059  -1.8900384   0.3450193), wk =   0.0025641
        k(  779) = (  -0.3715801  -1.8900384   0.5175290), wk =   0.0025641
        k(  780) = (  -0.3221544  -1.8900384   0.6900387), wk =   0.0025641
        k(  781) = (  -0.2727286  -1.8900384   0.8625483), wk =   0.0025641
        k(  782) = (  -0.2233029  -1.8900384   1.0350580), wk =   0.0025641

                       cryst. coord.
        k(    1) = (   0.0000000   0.0000000   0.0000000), wk =   0.0012821
        k(    2) = (  -0.0000000  -0.0000000   0.0769231), wk =   0.0025641
        k(    3) = (  -0.0000000  -0.0000000   0.1538462), wk =   0.0025641
        k(    4) = (  -0.0000000  -0.0000000   0.2307692), wk =   0.0025641
        k(    5) = (  -0.0000000  -0.0000000   0.3076923), wk =   0.0025641
        k(    6) = (  -0.0000000  -0.0000000   0.3846154), wk =   0.0025641
        k(    7) = (  -0.0000000  -0.0000000   0.4615385), wk =   0.0025641
        k(    8) = (   0.0000000   0.0500000   0.0000000), wk =   0.0025641
        k(    9) = (  -0.0000000   0.0500000   0.0769231), wk =   0.0025641
        k(   10) = (  -0.0000000   0.0500000   0.1538462), wk =   0.0025641
        k(   11) = (  -0.0000000   0.0500000   0.2307692), wk =   0.0025641
        k(   12) = (  -0.0000000   0.0500000   0.3076923), wk =   0.0025641
        k(   13) = (  -0.0000000   0.0500000   0.3846154), wk =   0.0025641
        k(   14) = (  -0.0000000   0.0500000   0.4615385), wk =   0.0025641
        k(   15) = (   0.0000000   0.0500000  -0.4615385), wk =   0.0025641
        k(   16) = (   0.0000000   0.0500000  -0.3846154), wk =   0.0025641
        k(   17) = (   0.0000000   0.0500000  -0.3076923), wk =   0.0025641
        k(   18) = (   0.0000000   0.0500000  -0.2307692), wk =   0.0025641
        k(   19) = (   0.0000000   0.0500000  -0.1538462), wk =   0.0025641
        k(   20) = (   0.0000000   0.0500000  -0.0769231), wk =   0.0025641
        k(   21) = (   0.0000000   0.1000000   0.0000000), wk =   0.0025641
        k(   22) = (  -0.0000000   0.1000000   0.0769231), wk =   0.0025641
        k(   23) = (  -0.0000000   0.1000000   0.1538462), wk =   0.0025641
        k(   24) = (  -0.0000000   0.1000000   0.2307692), wk =   0.0025641
        k(   25) = (  -0.0000000   0.1000000   0.3076923), wk =   0.0025641
        k(   26) = (  -0.0000000   0.1000000   0.3846154), wk =   0.0025641
        k(   27) = (  -0.0000000   0.1000000   0.4615385), wk =   0.0025641
        k(   28) = (   0.0000000   0.1000000  -0.4615385), wk =   0.0025641
        k(   29) = (   0.0000000   0.1000000  -0.3846154), wk =   0.0025641
        k(   30) = (   0.0000000   0.1000000  -0.3076923), wk =   0.0025641
        k(   31) = (   0.0000000   0.1000000  -0.2307692), wk =   0.0025641
        k(   32) = (   0.0000000   0.1000000  -0.1538462), wk =   0.0025641
        k(   33) = (   0.0000000   0.1000000  -0.0769231), wk =   0.0025641
        k(   34) = (   0.0000000   0.1500000   0.0000000), wk =   0.0025641
        k(   35) = (  -0.0000000   0.1500000   0.0769231), wk =   0.0025641
        k(   36) = (  -0.0000000   0.1500000   0.1538462), wk =   0.0025641
        k(   37) = (  -0.0000000   0.1500000   0.2307692), wk =   0.0025641
        k(   38) = (  -0.0000000   0.1500000   0.3076923), wk =   0.0025641
        k(   39) = (  -0.0000000   0.1500000   0.3846154), wk =   0.0025641
        k(   40) = (  -0.0000000   0.1500000   0.4615385), wk =   0.0025641
        k(   41) = (   0.0000000   0.1500000  -0.4615385), wk =   0.0025641
        k(   42) = (   0.0000000   0.1500000  -0.3846154), wk =   0.0025641
        k(   43) = (   0.0000000   0.1500000  -0.3076923), wk =   0.0025641
        k(   44) = (   0.0000000   0.1500000  -0.2307692), wk =   0.0025641
        k(   45) = (   0.0000000   0.1500000  -0.1538462), wk =   0.0025641
        k(   46) = (   0.0000000   0.1500000  -0.0769231), wk =   0.0025641
        k(   47) = (   0.0000000   0.2000000   0.0000000), wk =   0.0025641
        k(   48) = (  -0.0000000   0.2000000   0.0769231), wk =   0.0025641
        k(   49) = (  -0.0000000   0.2000000   0.1538462), wk =   0.0025641
        k(   50) = (  -0.0000000   0.2000000   0.2307692), wk =   0.0025641
        k(   51) = (  -0.0000000   0.2000000   0.3076923), wk =   0.0025641
        k(   52) = (  -0.0000000   0.2000000   0.3846154), wk =   0.0025641
        k(   53) = (  -0.0000000   0.2000000   0.4615385), wk =   0.0025641
        k(   54) = (   0.0000000   0.2000000  -0.4615385), wk =   0.0025641
        k(   55) = (   0.0000000   0.2000000  -0.3846154), wk =   0.0025641
        k(   56) = (   0.0000000   0.2000000  -0.3076923), wk =   0.0025641
        k(   57) = (   0.0000000   0.2000000  -0.2307692), wk =   0.0025641
        k(   58) = (   0.0000000   0.2000000  -0.1538462), wk =   0.0025641
        k(   59) = (   0.0000000   0.2000000  -0.0769231), wk =   0.0025641
        k(   60) = (  -0.0000000   0.2500000   0.0000000), wk =   0.0025641
        k(   61) = (  -0.0000000   0.2500000   0.0769231), wk =   0.0025641
        k(   62) = (  -0.0000000   0.2500000   0.1538462), wk =   0.0025641
        k(   63) = (  -0.0000000   0.2500000   0.2307692), wk =   0.0025641
        k(   64) = (  -0.0000000   0.2500000   0.3076923), wk =   0.0025641
        k(   65) = (  -0.0000000   0.2500000   0.3846154), wk =   0.0025641
        k(   66) = (  -0.0000000   0.2500000   0.4615385), wk =   0.0025641
        k(   67) = (   0.0000000   0.2500000  -0.4615385), wk =   0.0025641
        k(   68) = (   0.0000000   0.2500000  -0.3846154), wk =   0.0025641
        k(   69) = (   0.0000000   0.2500000  -0.3076923), wk =   0.0025641
        k(   70) = (   0.0000000   0.2500000  -0.2307692), wk =   0.0025641
        k(   71) = (   0.0000000   0.2500000  -0.1538462), wk =   0.0025641
        k(   72) = (   0.0000000   0.2500000  -0.0769231), wk =   0.0025641
        k(   73) = (   0.0000000   0.3000000   0.0000000), wk =   0.0025641
        k(   74) = (  -0.0000000   0.3000000   0.0769231), wk =   0.0025641
        k(   75) = (  -0.0000000   0.3000000   0.1538462), wk =   0.0025641
        k(   76) = (  -0.0000000   0.3000000   0.2307692), wk =   0.0025641
        k(   77) = (  -0.0000000   0.3000000   0.3076923), wk =   0.0025641
        k(   78) = (  -0.0000000   0.3000000   0.3846154), wk =   0.0025641
        k(   79) = (  -0.0000000   0.3000000   0.4615385), wk =   0.0025641
        k(   80) = (   0.0000000   0.3000000  -0.4615385), wk =   0.0025641
        k(   81) = (   0.0000000   0.3000000  -0.3846154), wk =   0.0025641
        k(   82) = (   0.0000000   0.3000000  -0.3076923), wk =   0.0025641
        k(   83) = (   0.0000000   0.3000000  -0.2307692), wk =   0.0025641
        k(   84) = (   0.0000000   0.3000000  -0.1538462), wk =   0.0025641
        k(   85) = (   0.0000000   0.3000000  -0.0769231), wk =   0.0025641
        k(   86) = (  -0.0000000   0.3500000   0.0000000), wk =   0.0025641
        k(   87) = (  -0.0000000   0.3500000   0.0769231), wk =   0.0025641
        k(   88) = (  -0.0000000   0.3500000   0.1538462), wk =   0.0025641
        k(   89) = (  -0.0000000   0.3500000   0.2307692), wk =   0.0025641
        k(   90) = (  -0.0000000   0.3500000   0.3076923), wk =   0.0025641
        k(   91) = (  -0.0000000   0.3500000   0.3846154), wk =   0.0025641
        k(   92) = (  -0.0000000   0.3500000   0.4615385), wk =   0.0025641
        k(   93) = (   0.0000000   0.3500000  -0.4615385), wk =   0.0025641
        k(   94) = (   0.0000000   0.3500000  -0.3846154), wk =   0.0025641
        k(   95) = (   0.0000000   0.3500000  -0.3076923), wk =   0.0025641
        k(   96) = (   0.0000000   0.3500000  -0.2307692), wk =   0.0025641
        k(   97) = (   0.0000000   0.3500000  -0.1538462), wk =   0.0025641
        k(   98) = (   0.0000000   0.3500000  -0.0769231), wk =   0.0025641
        k(   99) = (   0.0000000   0.4000000   0.0000000), wk =   0.0025641
        k(  100) = (  -0.0000000   0.4000000   0.0769231), wk =   0.0025641
        k(  101) = (  -0.0000000   0.4000000   0.1538462), wk =   0.0025641
        k(  102) = (  -0.0000000   0.4000000   0.2307692), wk =   0.0025641
        k(  103) = (  -0.0000000   0.4000000   0.3076923), wk =   0.0025641
        k(  104) = (  -0.0000000   0.4000000   0.3846154), wk =   0.0025641
        k(  105) = (  -0.0000000   0.4000000   0.4615385), wk =   0.0025641
        k(  106) = (   0.0000000   0.4000000  -0.4615385), wk =   0.0025641
        k(  107) = (   0.0000000   0.4000000  -0.3846154), wk =   0.0025641
        k(  108) = (   0.0000000   0.4000000  -0.3076923), wk =   0.0025641
        k(  109) = (   0.0000000   0.4000000  -0.2307692), wk =   0.0025641
        k(  110) = (   0.0000000   0.4000000  -0.1538462), wk =   0.0025641
        k(  111) = (   0.0000000   0.4000000  -0.0769231), wk =   0.0025641
        k(  112) = (   0.0000000   0.4500000   0.0000000), wk =   0.0025641
        k(  113) = (  -0.0000000   0.4500000   0.0769231), wk =   0.0025641
        k(  114) = (  -0.0000000   0.4500000   0.1538462), wk =   0.0025641
        k(  115) = (  -0.0000000   0.4500000   0.2307692), wk =   0.0025641
        k(  116) = (  -0.0000000   0.4500000   0.3076923), wk =   0.0025641
        k(  117) = (  -0.0000000   0.4500000   0.3846154), wk =   0.0025641
        k(  118) = (  -0.0000000   0.4500000   0.4615385), wk =   0.0025641
        k(  119) = (   0.0000000   0.4500000  -0.4615385), wk =   0.0025641
        k(  120) = (   0.0000000   0.4500000  -0.3846154), wk =   0.0025641
        k(  121) = (   0.0000000   0.4500000  -0.3076923), wk =   0.0025641
        k(  122) = (   0.0000000   0.4500000  -0.2307692), wk =   0.0025641
        k(  123) = (   0.0000000   0.4500000  -0.1538462), wk =   0.0025641
        k(  124) = (   0.0000000   0.4500000  -0.0769231), wk =   0.0025641
        k(  125) = (   0.0000000  -0.5000000   0.0000000), wk =   0.0012821
        k(  126) = (  -0.0000000  -0.5000000   0.0769231), wk =   0.0025641
        k(  127) = (  -0.0000000  -0.5000000   0.1538462), wk =   0.0025641
        k(  128) = (  -0.0000000  -0.5000000   0.2307692), wk =   0.0025641
        k(  129) = (  -0.0000000  -0.5000000   0.3076923), wk =   0.0025641
        k(  130) = (  -0.0000000  -0.5000000   0.3846154), wk =   0.0025641
        k(  131) = (  -0.0000000  -0.5000000   0.4615385), wk =   0.0025641
        k(  132) = (   0.1666667   0.0000000   0.0000000), wk =   0.0025641
        k(  133) = (   0.1666667   0.0000000   0.0769231), wk =   0.0025641
        k(  134) = (   0.1666667   0.0000000   0.1538462), wk =   0.0025641
        k(  135) = (   0.1666667  -0.0000000   0.2307692), wk =   0.0025641
        k(  136) = (   0.1666667  -0.0000000   0.3076923), wk =   0.0025641
        k(  137) = (   0.1666667  -0.0000000   0.3846154), wk =   0.0025641
        k(  138) = (   0.1666667  -0.0000000   0.4615385), wk =   0.0025641
        k(  139) = (   0.1666667   0.0000000  -0.4615385), wk =   0.0025641
        k(  140) = (   0.1666667   0.0000000  -0.3846154), wk =   0.0025641
        k(  141) = (   0.1666667   0.0000000  -0.3076923), wk =   0.0025641
        k(  142) = (   0.1666667   0.0000000  -0.2307692), wk =   0.0025641
        k(  143) = (   0.1666667   0.0000000  -0.1538462), wk =   0.0025641
[...]
     0.8305   0.8209   0.1985   0.1960   0.0966   0.0947

          k =-0.2233-1.8900 1.0351 ( 11797 PWs)   bands (ev):

    -3.1491  -3.1478  -2.1717  -2.1712  -1.9589  -1.9561  -1.1650  -1.1645
     0.0115   0.0136   0.7610   0.7653   0.8596   0.8692   1.9978   2.0097
     2.0925   2.0972   2.7306   2.7417   3.4953   3.5016   3.8109   3.8183
     4.2532   4.2540   4.6359   4.6389   4.8859   4.8862   5.5728   5.5900
     6.1424   6.1459   6.4947   6.5010   6.7917   6.7954

     occupation numbers 
     1.0000   1.0000   1.0000   1.0000   1.0000   1.0000   1.0000   1.0000
     1.0000   1.0000   1.0000   1.0000   1.0000   1.0000   1.0000   1.0000
     1.0000   1.0000   1.0000   1.0000   1.0000   1.0000   1.0000   1.0000
     1.0000   1.0000   1.0002   1.0002   1.0013   1.0013   1.0338   1.0345
     0.8020   0.7982   0.3345   0.3263   0.0419   0.0397

     the Fermi energy is     6.3747 ev

!    total energy              =    -585.64457464 Ry
     Harris-Foulkes estimate   =    -585.64457464 Ry
     estimated scf accuracy    <          5.1E-13 Ry

     The total energy is the sum of the following terms:

     one-electron contribution =      41.79300656 Ry
     hartree contribution      =       8.28199894 Ry
     xc contribution           =     -75.85993161 Ry
     ewald contribution        =    -108.26530123 Ry
     one-center paw contrib.   =    -451.59065720 Ry
      -> PAW hartree energy AE =       0.84498058 Ry
      -> PAW hartree energy PS =      -0.84306047 Ry
      -> PAW xc energy AE      =     -32.63762566 Ry
      -> PAW xc energy PS      =       1.33921967 Ry
      -> total E_H with PAW    =       8.28391905 Ry
      -> total E_XC with PAW   =    -107.15833760 Ry
     smearing contrib. (-TS)   =      -0.00369010 Ry

     convergence has been achieved in  19 iterations

     Forces acting on atoms (cartesian axes, Ry/au):

     atom    1 type  1   force =    -0.00000371   -0.00000573    0.00000165
     atom    2 type  1   force =    -0.00084293    0.00000116    0.00016262
     atom    3 type  1   force =    -0.00126678    0.00000266   -0.00047541
     atom    4 type  1   force =     0.00126656   -0.00000263    0.00047591
     atom    5 type  1   force =     0.00084269   -0.00000108   -0.00016309
     atom    6 type  2   force =    -0.00052588   -0.00001513   -0.00055705
     atom    7 type  2   force =     0.00022002    0.00000789    0.00026360
     atom    8 type  3   force =    -0.00058540   -0.00001082   -0.00046040
     atom    9 type  3   force =     0.00058498    0.00001090    0.00046061
     atom   10 type  2   force =    -0.00022087   -0.00000806   -0.00026353
     atom   11 type  2   force =     0.00052562    0.00001520    0.00055677
     atom   12 type  1   force =     0.00000731    0.00000573   -0.00000184
     atom   13 type  1   force =    -0.00082416    0.00000954    0.00014722
     atom   14 type  1   force =    -0.00126932    0.00000675   -0.00048261
     atom   15 type  1   force =     0.00126900   -0.00000671    0.00048307
     atom   16 type  1   force =     0.00082381   -0.00000951   -0.00014765
     atom   17 type  2   force =    -0.00052992   -0.00000233   -0.00054984
     atom   18 type  2   force =     0.00021012    0.00001119    0.00026038
     atom   19 type  3   force =    -0.00059560   -0.00000461   -0.00045055
     atom   20 type  3   force =     0.00059502    0.00000462    0.00045086
     atom   21 type  2   force =    -0.00021091   -0.00001124   -0.00026029
     atom   22 type  2   force =     0.00053037    0.00000222    0.00054957
     The non-local contrib.  to forces
     atom    1 type  1   force =    -0.00000508   -0.00001267    0.00000488
     atom    2 type  1   force =     0.01374771   -0.00000329   -0.00079375
     atom    3 type  1   force =     0.00759523   -0.00003766    0.01112957
     atom    4 type  1   force =    -0.00759847    0.00003683   -0.01112860
     atom    5 type  1   force =    -0.01375000    0.00000243    0.00079089
     atom    6 type  2   force =    -0.02250285    0.00004782   -0.05441907
     atom    7 type  2   force =     0.01667519   -0.00003939    0.02115690
     atom    8 type  3   force =     0.00596207    0.00008356   -0.01082401
     atom    9 type  3   force =    -0.00596422   -0.00008406    0.01082433
     atom   10 type  2   force =    -0.01668504    0.00004000   -0.02115380
     atom   11 type  2   force =     0.02251654   -0.00004710    0.05441562
     atom   12 type  1   force =     0.00001189    0.00001206   -0.00000514
     atom   13 type  1   force =     0.01380046    0.00003666   -0.00084607
     atom   14 type  1   force =     0.00759122   -0.00002668    0.01111372
     atom   15 type  1   force =    -0.00759427    0.00002598   -0.01111299
     atom   16 type  1   force =    -0.01380315   -0.00003735    0.00084341
     atom   17 type  2   force =    -0.02251348    0.00007307   -0.05441365
     atom   18 type  2   force =     0.01666932   -0.00003245    0.02114939
     atom   19 type  3   force =     0.00594795    0.00010057   -0.01081170
     atom   20 type  3   force =    -0.00595017   -0.00010093    0.01081221
     atom   21 type  2   force =    -0.01667854    0.00003293   -0.02114601
     atom   22 type  2   force =     0.02252825   -0.00007237    0.05441053
     The ionic contribution  to forces
     atom    1 type  1   force =    -0.00003059    0.00002240    0.00002102
     atom    2 type  1   force =    -0.16037763    0.00045096   -0.31370010
     atom    3 type  1   force =    -0.15645194    0.00017424    0.17816052
     atom    4 type  1   force =     0.15644792   -0.00017585   -0.17815977
     atom    5 type  1   force =     0.16038865   -0.00045310    0.31369619
     atom    6 type  2   force =     0.14390119    0.00015829    0.85247903
     atom    7 type  2   force =    -0.62546245    0.00062460   -0.77603163
     atom    8 type  3   force =    -0.05427377    0.00145315    0.33532853
     atom    9 type  3   force =     0.05423028   -0.00145329   -0.33531870
     atom   10 type  2   force =     0.62542195   -0.00062304    0.77603609
     atom   11 type  2   force =    -0.14384085   -0.00015664   -0.85249580
     atom   12 type  1   force =     0.00006843   -0.00002104   -0.00001070
     atom   13 type  1   force =    -0.16017945    0.00055178   -0.31376751
     atom   14 type  1   force =    -0.15643119    0.00018047    0.17809812
     atom   15 type  1   force =     0.15642616   -0.00018208   -0.17809817
     atom   16 type  1   force =     0.16018954   -0.00055393    0.31376384
     atom   17 type  2   force =     0.14400344    0.00011411    0.85255713
     atom   18 type  2   force =    -0.62553344    0.00063709   -0.77601824
     atom   19 type  3   force =    -0.05429889    0.00160966    0.33536932
     atom   20 type  3   force =     0.05425404   -0.00160981   -0.33535874
     atom   21 type  2   force =     0.62549102   -0.00063552    0.77602252
     atom   22 type  2   force =    -0.14394243   -0.00011246   -0.85257296
     The local contribution  to forces
     atom    1 type  1   force =     0.00003108   -0.00001678   -0.00002370
     atom    2 type  1   force =     0.14748683   -0.00044428    0.31409719
     atom    3 type  1   force =     0.14830305   -0.00013843   -0.18819689
     atom    4 type  1   force =    -0.14829698    0.00014049    0.18819569
     atom    5 type  1   force =    -0.14749664    0.00044695   -0.31409128
     atom    6 type  2   force =    -0.12405784   -0.00021611   -0.80399140
     atom    7 type  2   force =     0.61062280   -0.00058123    0.75716730
     atom    8 type  3   force =     0.04834910   -0.00153329   -0.32589109
     atom    9 type  3   force =    -0.04830482    0.00153364    0.32588116
     atom   10 type  2   force =    -0.61058152    0.00057971   -0.75717241
     atom   11 type  2   force =     0.12399740    0.00021462    0.80400983
     atom   12 type  1   force =    -0.00007185    0.00001566    0.00001341
     atom   13 type  1   force =     0.14726121   -0.00057166    0.31419534
     atom   14 type  1   force =     0.14828338   -0.00015024   -0.18812790
     atom   15 type  1   force =    -0.14827652    0.00015219    0.18812769
     atom   16 type  1   force =    -0.14726983    0.00057413   -0.31418982
     atom   17 type  2   force =    -0.12415465   -0.00018122   -0.80406712
     atom   18 type  2   force =     0.61068914   -0.00059629    0.75715730
     atom   19 type  3   force =     0.04837638   -0.00169801   -0.32593282
     atom   20 type  3   force =    -0.04833072    0.00169816    0.32592205
     atom   21 type  2   force =    -0.61064629    0.00059500   -0.75716248
     atom   22 type  2   force =     0.12409330    0.00017957    0.80408436
     The core correction contribution to forces
     atom    1 type  1   force =     0.00000061    0.00000116   -0.00000058
     atom    2 type  1   force =    -0.00170005   -0.00000238    0.00055932
     atom    3 type  1   force =    -0.00071340    0.00000435   -0.00156870
     atom    4 type  1   force =     0.00071374   -0.00000425    0.00156859
     atom    5 type  1   force =     0.00170029    0.00000249   -0.00055899
     atom    6 type  2   force =     0.00213338   -0.00000529    0.00537412
     atom    7 type  2   force =    -0.00161566    0.00000374   -0.00202867
     atom    8 type  3   force =    -0.00062311   -0.00001440    0.00092599
     atom    9 type  3   force =     0.00062340    0.00001446   -0.00092606
     atom   10 type  2   force =     0.00162321   -0.00000488    0.00202624
     atom   11 type  2   force =    -0.00214783    0.00000416   -0.00537270
     atom   12 type  1   force =    -0.00000147   -0.00000110    0.00000056
     atom   13 type  1   force =    -0.00170662   -0.00000740    0.00056550
     atom   14 type  1   force =    -0.00071300    0.00000305   -0.00156664
     atom   15 type  1   force =     0.00071333   -0.00000296    0.00156656
     atom   16 type  1   force =     0.00170690    0.00000748   -0.00056519
     atom   17 type  2   force =     0.00213447   -0.00000845    0.00537354
     atom   18 type  2   force =    -0.00161498    0.00000268   -0.00202778
     atom   19 type  3   force =    -0.00062131   -0.00001699    0.00092446
     atom   20 type  3   force =     0.00062160    0.00001703   -0.00092455
     atom   21 type  2   force =     0.00162247   -0.00000380    0.00202531
     atom   22 type  2   force =    -0.00214903    0.00000732   -0.00537215
     The Hubbard contrib.    to forces
     atom    1 type  1   force =     0.00000000    0.00000000    0.00000000
     atom    2 type  1   force =     0.00000000    0.00000000    0.00000000
     atom    3 type  1   force =     0.00000000    0.00000000    0.00000000
     atom    4 type  1   force =     0.00000000    0.00000000    0.00000000
     atom    5 type  1   force =     0.00000000    0.00000000    0.00000000
     atom    6 type  2   force =     0.00000000    0.00000000    0.00000000
     atom    7 type  2   force =     0.00000000    0.00000000    0.00000000
     atom    8 type  3   force =     0.00000000    0.00000000    0.00000000
     atom    9 type  3   force =     0.00000000    0.00000000    0.00000000
     atom   10 type  2   force =     0.00000000    0.00000000    0.00000000
     atom   11 type  2   force =     0.00000000    0.00000000    0.00000000
     atom   12 type  1   force =     0.00000000    0.00000000    0.00000000
     atom   13 type  1   force =     0.00000000    0.00000000    0.00000000
     atom   14 type  1   force =     0.00000000    0.00000000    0.00000000
     atom   15 type  1   force =     0.00000000    0.00000000    0.00000000
     atom   16 type  1   force =     0.00000000    0.00000000    0.00000000
     atom   17 type  2   force =     0.00000000    0.00000000    0.00000000
     atom   18 type  2   force =     0.00000000    0.00000000    0.00000000
     atom   19 type  3   force =     0.00000000    0.00000000    0.00000000
     atom   20 type  3   force =     0.00000000    0.00000000    0.00000000
     atom   21 type  2   force =     0.00000000    0.00000000    0.00000000
     atom   22 type  2   force =     0.00000000    0.00000000    0.00000000
     The SCF correction term to forces
     atom    1 type  1   force =    -0.00000002    0.00000000    0.00000000
     atom    2 type  1   force =    -0.00000008   -0.00000000   -0.00000007
     atom    3 type  1   force =    -0.00000002   -0.00000000    0.00000006
     atom    4 type  1   force =     0.00000005    0.00000000   -0.00000004
     atom    5 type  1   force =     0.00000010   -0.00000000    0.00000006
     atom    6 type  2   force =    -0.00000005    0.00000000    0.00000023
     atom    7 type  2   force =    -0.00000016    0.00000001   -0.00000033
     atom    8 type  3   force =     0.00000001    0.00000000    0.00000014
     atom    9 type  3   force =     0.00000004   -0.00000000   -0.00000016
     atom   10 type  2   force =     0.00000024   -0.00000000    0.00000032
     atom   11 type  2   force =     0.00000006    0.00000000   -0.00000022
     atom   12 type  1   force =     0.00000002    0.00000000    0.00000000
     atom   13 type  1   force =    -0.00000006    0.00000000   -0.00000006
     atom   14 type  1   force =    -0.00000003   -0.00000000    0.00000005
     atom   15 type  1   force =     0.00000000    0.00000000   -0.00000006
     atom   16 type  1   force =     0.00000005   -0.00000000    0.00000007
     atom   17 type  2   force =     0.00000001    0.00000000    0.00000022
     atom   18 type  2   force =    -0.00000022    0.00000000   -0.00000032
     atom   19 type  3   force =    -0.00000003   -0.00000000    0.00000016
     atom   20 type  3   force =    -0.00000003   -0.00000000   -0.00000015
     atom   21 type  2   force =     0.00000014   -0.00000000    0.00000034
     atom   22 type  2   force =    -0.00000001   -0.00000000   -0.00000025

     Total force =     0.003905     Total SCF correction =     0.000001


     Computing stress (Cartesian axis) and pressure

          total   stress  (Ry/bohr**3)                   (kbar)     P=   -3.25
  -0.00001424  -0.00000344  -0.00000442         -2.09     -0.51     -0.65
  -0.00000344  -0.00001137   0.00000025         -0.51     -1.67      0.04
  -0.00000442   0.00000025  -0.00004060         -0.65      0.04     -5.97

     kinetic stress (kbar)   1353.47     -0.06    -14.80
                               -0.06   1371.50      0.04
                              -14.80      0.04   1354.30

     local   stress (kbar)    -94.28      0.56    -56.93
                                0.56     58.13      0.46
                              -56.93      0.46    151.95

     nonloc. stress (kbar)   1078.86     -0.45     -0.12
                               -0.45   1066.64      0.02
                               -0.12      0.02   1073.91

     hartree stress (kbar)    181.73      0.25      2.98
                                0.25    167.19     -0.15
                                2.98     -0.15     92.93

     exc-cor stress (kbar)   1447.06     -0.02      0.09
                               -0.02   1446.41      0.00
                                0.09      0.00   1446.64

     corecor stress (kbar)  -2144.22      0.07      0.27
                                0.07  -2142.56     -0.01
                                0.27     -0.01  -2143.41

     ewald   stress (kbar)  -1824.73     -0.86     67.86
                               -0.86  -1968.98     -0.33
                               67.86     -0.33  -1982.29

     hubbard stress (kbar)      0.00      0.00      0.00
                                0.00      0.00      0.00
                                0.00      0.00      0.00

     london  stress (kbar)      0.00      0.00      0.00
                                0.00      0.00      0.00
                                0.00      0.00      0.00

     DFT-D3  stress (kbar)      0.00      0.00      0.00
                                0.00      0.00      0.00
                                0.00      0.00      0.00

     XDM     stress (kbar)      0.00      0.00      0.00
                                0.00      0.00      0.00
                                0.00      0.00      0.00

     dft-nl  stress (kbar)      0.00      0.00      0.00
                                0.00      0.00      0.00
                                0.00      0.00      0.00

     TS-vdW  stress (kbar)      0.00      0.00      0.00
                                0.00      0.00      0.00
                                0.00      0.00      0.00



     Writing output data file aiida.save/
 
     init_run     :     23.94s CPU     24.39s WALL (       1 calls)
     electrons    :    836.60s CPU    849.26s WALL (       1 calls)
     forces       :      9.01s CPU      9.13s WALL (       1 calls)
     stress       :     59.73s CPU     60.78s WALL (       1 calls)

     Called by init_run:
     wfcinit      :     21.22s CPU     21.58s WALL (       1 calls)
     wfcinit:atom :      0.17s CPU      0.19s WALL (     196 calls)
     wfcinit:wfcr :     19.72s CPU     20.01s WALL (     196 calls)
     potinit      :      0.93s CPU      0.95s WALL (       1 calls)
     hinit0       :      1.61s CPU      1.64s WALL (       1 calls)

     Called by electrons:
     c_bands      :    748.00s CPU    757.61s WALL (      19 calls)
     sum_band     :     82.04s CPU     84.08s WALL (      19 calls)
     v_of_rho     :      1.73s CPU      1.84s WALL (      20 calls)
     v_h          :      0.13s CPU      0.14s WALL (      20 calls)
     v_xc         :      1.74s CPU      1.85s WALL (      22 calls)
     newd         :      1.57s CPU      2.44s WALL (      20 calls)
     PAW_pot      :      2.59s CPU      2.59s WALL (      20 calls)
     mix_rho      :      0.63s CPU      0.67s WALL (      19 calls)

     Called by c_bands:
     init_us_2    :     24.24s CPU     24.54s WALL (    8036 calls)
     cegterg      :    582.77s CPU    590.11s WALL (    3724 calls)

     Called by sum_band:
     sum_band:bec :      0.48s CPU      0.48s WALL (    3724 calls)
     addusdens    :      1.54s CPU      2.47s WALL (      19 calls)

     Called by *egterg:
     h_psi        :    403.17s CPU    409.16s WALL (   17122 calls)
     s_psi        :     59.88s CPU     60.07s WALL (   17122 calls)
     g_psi        :      2.87s CPU      2.89s WALL (   13202 calls)
     cdiaghg      :     62.04s CPU     63.09s WALL (   16926 calls)
     cegterg:over :     27.65s CPU     27.79s WALL (   13202 calls)
     cegterg:upda :     24.01s CPU     24.20s WALL (   13202 calls)
     cegterg:last :     10.05s CPU     10.10s WALL (    4238 calls)
     cdiaghg:chol :      3.94s CPU      3.97s WALL (   16926 calls)
     cdiaghg:inve :      0.83s CPU      0.84s WALL (   16926 calls)
     cdiaghg:para :      7.88s CPU      7.95s WALL (   33852 calls)

     Called by h_psi:
     h_psi:pot    :    401.07s CPU    407.04s WALL (   17122 calls)
     h_psi:calbec :     57.02s CPU     57.67s WALL (   17122 calls)
     vloc_psi     :    283.59s CPU    288.78s WALL (   17122 calls)
     add_vuspsi   :     60.29s CPU     60.46s WALL (   17122 calls)

     General routines
     calbec       :    105.78s CPU    107.57s WALL (   21826 calls)
     fft          :      1.45s CPU      1.56s WALL (     284 calls)
     ffts         :      0.22s CPU      0.23s WALL (     305 calls)
     fftw         :    299.68s CPU    305.00s WALL (  986912 calls)
     interpolate  :      0.15s CPU      0.15s WALL (      20 calls)
 
     Parallel routines
     fft_scatt_xy :     38.35s CPU     39.08s WALL (  987501 calls)
     fft_scatt_yz :    114.53s CPU    116.77s WALL (  987501 calls)

     PAW routines
     PAW_pot      :      2.59s CPU      2.59s WALL (      20 calls)
 
     PWSCF        :  15m53.16s CPU  16m26.83s WALL

 
   This run was terminated on:  14:28:44  22Feb2020            

=------------------------------------------------------------------------------=
   JOB DONE.
=------------------------------------------------------------------------------=
