begin
comment 22 atoms, species Al4Mg10Si8
lattice     27.8548479806     0.0000000000    -7.9806818835
lattice      0.0000000000     7.6768441102     0.0000000000
lattice      0.0000000000     0.0000000000    12.9203782329
atom      0.0392937635     7.6730135405    12.7612647135   Mg  0.0 0.0    6.94999948e-07 -5.74999957e-07 -3.94999970e-07
atom      2.1103657266     3.8345509196     3.8886106310   Mg  0.0 0.0   -4.12849969e-04 -2.29999983e-07  8.11649939e-05
atom      4.3491540543     3.8345712025    10.4073767494   Mg  0.0 0.0   -6.34034952e-04 -3.99999970e-07 -2.44904982e-04
atom      9.6569154142     7.6730193356    -1.7956997847   Mg  0.0 0.0    6.33239952e-04  4.59999965e-07  2.45679982e-04
atom     11.8956139176     7.6730367209     4.7232170067   Mg  0.0 0.0    4.13069969e-04  4.69999965e-07 -8.22899938e-05
atom      1.6493847723     7.6729063309     7.8837644141   Si  0.0 0.0   -2.59289981e-04  2.28999983e-06 -2.86724978e-04
atom      5.2118638303     7.6729990527     1.2348487509   Si  0.0 0.0    1.04804992e-04 -2.00499985e-06  1.43714989e-04
atom      6.0796095596     7.6730396185     6.0857407891   Al  0.0 0.0   -2.94474978e-04 -2.91499978e-06 -2.36399982e-04
atom      7.9263498018     3.8345509196     2.5259738439   Al  0.0 0.0    2.94654978e-04  2.83499979e-06  2.37029982e-04
atom      8.7941708675     3.8345769976     7.3768398041   Si  0.0 0.0   -1.05229992e-04  1.83499986e-06 -1.43079989e-04
atom     12.3565427159     3.8346581292     0.7280139651   Si  0.0 0.0    2.59544980e-04 -2.19499984e-06  2.86254978e-04
atom     13.9667119587     3.8345943830     8.7709179766   Mg  0.0 0.0    8.49999936e-07  5.79999956e-07 -3.59999973e-07
atom     16.0377839218     7.6730367209    -0.1017332083   Mg  0.0 0.0   -4.12924969e-04  3.94999970e-07  8.11199939e-05
atom     18.2765722495     7.6730193356     6.4170329101   Mg  0.0 0.0   -6.34124952e-04  5.59999958e-07 -2.44824982e-04
atom     23.5843336094     3.8345712025    -5.7860465215   Mg  0.0 0.0    6.33229952e-04 -4.34999967e-07  2.45599982e-04
atom     25.8230321128     3.8345509196     0.7328702698   Mg  0.0 0.0    4.13019969e-04 -3.44999974e-07 -8.22099938e-05
atom     15.5768029675     3.8346552316     3.8934205748   Si  0.0 0.0   -2.59434981e-04 -2.19499984e-06 -2.86769978e-04
atom     19.1392820255     3.8345798952    -2.7554979860   Si  0.0 0.0    1.04814992e-04  1.34499990e-06  1.43579989e-04
atom     20.0070277547     3.8345509196     2.0953969498   Al  0.0 0.0   -2.94274978e-04  2.78499979e-06 -2.36524982e-04
atom     21.8537679970     7.6730425161    -1.4643728930   Al  0.0 0.0    2.94484978e-04 -2.89999978e-06  2.37184982e-04
atom     22.7215890626     7.6729961551     3.3864930672   Si  0.0 0.0   -1.05159992e-04 -1.32499990e-06 -1.43059989e-04
atom     26.2839638087     7.6729063309    -3.2623298742   Si  0.0 0.0    2.59394981e-04  1.95999985e-06  2.86214978e-04
energy -2.928222273240840e+02
charge 0.0000
end
